;
;	File '1T63D_DNA_parambsc1_tip3p.top' was generated
;	At date: Wed Mar 25 06:06:59 2026
;
;	This is a standalone topology file
;
;	Created by:
;	                    :-) GROMACS - gmx pdb2gmx, 2024.1 (-:
;	
;	Executable:   /usr/local/gromacs/2024.1/bin/gmx
;	Data prefix:  /usr/local/gromacs/2024.1
;	Command line:
;	  gmx pdb2gmx -f AF_Nhp6A/1T63D_DNA_AF_fix.pdb -ignh -p 1T63D_DNA_parambsc1_tip3p -o data/1T63D_DNA_parambsc1_tip3p -i 1T63D_DNA_parambsc1_tip3p -n data/1T63D_DNA_parambsc1_tip3p
;	Force field was read from current directory or a relative path - path added.
;

; Include forcefield parameters
#include "./amber14sb_parmbsc1.ff/forcefield.itp"

; Include chain topologies
#include "1T63D_DNA_parambsc1_tip3p_Protein_chain_A.itp"
#include "1T63D_DNA_parambsc1_tip3p_DNA_chain_B.itp"
#include "1T63D_DNA_parambsc1_tip3p_DNA_chain_C.itp"

; Include water topology
#include "./amber14sb_parmbsc1.ff/tip3p.itp"

#ifdef POSRES_WATER
; Position restraint for each water oxygen
[ position_restraints ]
;  i funct       fcx        fcy        fcz
   1    1       1000       1000       1000
#endif

; Include topology for ions
#include "./amber14sb_parmbsc1.ff/ions.itp"

[ system ]
; Name
Protein

[ molecules ]
; Compound        #mols
Protein_chain_A     1
DNA_chain_B         1
DNA_chain_C         1
