;
;	File '1T63D_DNA_parambsc1_tip3p_DNA_chain_B.itp' was generated
;	At date: Wed Mar 25 06:06:59 2026
;
;	This is a include topology file
;
;	Created by:
;	                    :-) GROMACS - gmx pdb2gmx, 2024.1 (-:
;	
;	Executable:   /usr/local/gromacs/2024.1/bin/gmx
;	Data prefix:  /usr/local/gromacs/2024.1
;	Command line:
;	  gmx pdb2gmx -f AF_Nhp6A/1T63D_DNA_AF_fix.pdb -ignh -p 1T63D_DNA_parambsc1_tip3p -o data/1T63D_DNA_parambsc1_tip3p -i 1T63D_DNA_parambsc1_tip3p -n data/1T63D_DNA_parambsc1_tip3p
;	Force field was read from current directory or a relative path - path added.
;

[ moleculetype ]
; Name            nrexcl
DNA_chain_B         3

[ atoms ]
;   nr       type  resnr residue  atom   cgnr     charge       mass  typeB    chargeB      massB
; residue   1 DG  rtp DG5  q -0.3
     1         OH      1     DG    O5'      1    -0.6318         16
     2         HO      1     DG    H5T      2     0.4422      1.008
     3         CI      1     DG    C5'      3    -0.0069      12.01
     4         H1      1     DG   H5'1      4     0.0754      1.008
     5         H1      1     DG   H5'2      5     0.0754      1.008
     6         CT      1     DG    C4'      6     0.1629      12.01
     7         H1      1     DG    H4'      7     0.1176      1.008
     8         OS      1     DG    O4'      8    -0.3691         16
     9         CT      1     DG    C1'      9     0.0358      12.01
    10         H2      1     DG    H1'     10     0.1746      1.008
    11         N*      1     DG     N9     11     0.0577      14.01
    12         CK      1     DG     C8     12     0.0736      12.01
    13         H5      1     DG     H8     13     0.1997      1.008
    14         NB      1     DG     N7     14    -0.5725      14.01
    15         CB      1     DG     C5     15     0.1991      12.01
    16          C      1     DG     C6     16     0.4918      12.01
    17          O      1     DG     O6     17    -0.5699         16
    18         NA      1     DG     N1     18    -0.5053      14.01
    19          H      1     DG     H1     19      0.352      1.008
    20         CA      1     DG     C2     20     0.7432      12.01
    21         N2      1     DG     N2     21     -0.923      14.01
    22          H      1     DG    H21     22     0.4235      1.008
    23          H      1     DG    H22     23     0.4235      1.008
    24         NC      1     DG     N3     24    -0.6636      14.01
    25         CB      1     DG     C4     25     0.1814      12.01
    26         CE      1     DG    C3'     26     0.0713     12.001
    27         H1      1     DG    H3'     27     0.0985      1.008
    28         CT      1     DG    C2'     28    -0.0854      12.01
    29         HC      1     DG   H2'1     29     0.0718      1.008
    30         HC      1     DG   H2'2     30     0.0718      1.008
    31         OS      1     DG    O3'     31    -0.5232         16   ; qtot -0.3079
; residue   2 DG  rtp DG   q -1.0
    32          P      2     DG      P     32     1.1659      30.97
    33         O2      2     DG    O1P     33    -0.7761         16
    34         O2      2     DG    O2P     34    -0.7761         16
    35         OS      2     DG    O5'     35    -0.4954         16
    36         CI      2     DG    C5'     36    -0.0069      12.01
    37         H1      2     DG   H5'1     37     0.0754      1.008
    38         H1      2     DG   H5'2     38     0.0754      1.008
    39         CT      2     DG    C4'     39     0.1629      12.01
    40         H1      2     DG    H4'     40     0.1176      1.008
    41         OS      2     DG    O4'     41    -0.3691         16
    42         CT      2     DG    C1'     42     0.0358      12.01
    43         H2      2     DG    H1'     43     0.1746      1.008
    44         N*      2     DG     N9     44     0.0577      14.01
    45         CK      2     DG     C8     45     0.0736      12.01
    46         H5      2     DG     H8     46     0.1997      1.008
    47         NB      2     DG     N7     47    -0.5725      14.01
    48         CB      2     DG     C5     48     0.1991      12.01
    49          C      2     DG     C6     49     0.4918      12.01
    50          O      2     DG     O6     50    -0.5699         16
    51         NA      2     DG     N1     51    -0.5053      14.01
    52          H      2     DG     H1     52      0.352      1.008
    53         CA      2     DG     C2     53     0.7432      12.01
    54         N2      2     DG     N2     54     -0.923      14.01
    55          H      2     DG    H21     55     0.4235      1.008
    56          H      2     DG    H22     56     0.4235      1.008
    57         NC      2     DG     N3     57    -0.6636      14.01
    58         CB      2     DG     C4     58     0.1814      12.01
    59         CE      2     DG    C3'     59     0.0713     12.001
    60         H1      2     DG    H3'     60     0.0985      1.008
    61         CT      2     DG    C2'     61    -0.0854      12.01
    62         HC      2     DG   H2'1     62     0.0718      1.008
    63         HC      2     DG   H2'2     63     0.0718      1.008
    64         OS      2     DG    O3'     64    -0.5232         16   ; qtot -1.308
; residue   3 DG  rtp DG   q -1.0
    65          P      3     DG      P     65     1.1659      30.97
    66         O2      3     DG    O1P     66    -0.7761         16
    67         O2      3     DG    O2P     67    -0.7761         16
    68         OS      3     DG    O5'     68    -0.4954         16
    69         CI      3     DG    C5'     69    -0.0069      12.01
    70         H1      3     DG   H5'1     70     0.0754      1.008
    71         H1      3     DG   H5'2     71     0.0754      1.008
    72         CT      3     DG    C4'     72     0.1629      12.01
    73         H1      3     DG    H4'     73     0.1176      1.008
    74         OS      3     DG    O4'     74    -0.3691         16
    75         CT      3     DG    C1'     75     0.0358      12.01
    76         H2      3     DG    H1'     76     0.1746      1.008
    77         N*      3     DG     N9     77     0.0577      14.01
    78         CK      3     DG     C8     78     0.0736      12.01
    79         H5      3     DG     H8     79     0.1997      1.008
    80         NB      3     DG     N7     80    -0.5725      14.01
    81         CB      3     DG     C5     81     0.1991      12.01
    82          C      3     DG     C6     82     0.4918      12.01
    83          O      3     DG     O6     83    -0.5699         16
    84         NA      3     DG     N1     84    -0.5053      14.01
    85          H      3     DG     H1     85      0.352      1.008
    86         CA      3     DG     C2     86     0.7432      12.01
    87         N2      3     DG     N2     87     -0.923      14.01
    88          H      3     DG    H21     88     0.4235      1.008
    89          H      3     DG    H22     89     0.4235      1.008
    90         NC      3     DG     N3     90    -0.6636      14.01
    91         CB      3     DG     C4     91     0.1814      12.01
    92         CE      3     DG    C3'     92     0.0713     12.001
    93         H1      3     DG    H3'     93     0.0985      1.008
    94         CT      3     DG    C2'     94    -0.0854      12.01
    95         HC      3     DG   H2'1     95     0.0718      1.008
    96         HC      3     DG   H2'2     96     0.0718      1.008
    97         OS      3     DG    O3'     97    -0.5232         16   ; qtot -2.308
; residue   4 DG  rtp DG   q -1.0
    98          P      4     DG      P     98     1.1659      30.97
    99         O2      4     DG    O1P     99    -0.7761         16
   100         O2      4     DG    O2P    100    -0.7761         16
   101         OS      4     DG    O5'    101    -0.4954         16
   102         CI      4     DG    C5'    102    -0.0069      12.01
   103         H1      4     DG   H5'1    103     0.0754      1.008
   104         H1      4     DG   H5'2    104     0.0754      1.008
   105         CT      4     DG    C4'    105     0.1629      12.01
   106         H1      4     DG    H4'    106     0.1176      1.008
   107         OS      4     DG    O4'    107    -0.3691         16
   108         CT      4     DG    C1'    108     0.0358      12.01
   109         H2      4     DG    H1'    109     0.1746      1.008
   110         N*      4     DG     N9    110     0.0577      14.01
   111         CK      4     DG     C8    111     0.0736      12.01
   112         H5      4     DG     H8    112     0.1997      1.008
   113         NB      4     DG     N7    113    -0.5725      14.01
   114         CB      4     DG     C5    114     0.1991      12.01
   115          C      4     DG     C6    115     0.4918      12.01
   116          O      4     DG     O6    116    -0.5699         16
   117         NA      4     DG     N1    117    -0.5053      14.01
   118          H      4     DG     H1    118      0.352      1.008
   119         CA      4     DG     C2    119     0.7432      12.01
   120         N2      4     DG     N2    120     -0.923      14.01
   121          H      4     DG    H21    121     0.4235      1.008
   122          H      4     DG    H22    122     0.4235      1.008
   123         NC      4     DG     N3    123    -0.6636      14.01
   124         CB      4     DG     C4    124     0.1814      12.01
   125         CE      4     DG    C3'    125     0.0713     12.001
   126         H1      4     DG    H3'    126     0.0985      1.008
   127         CT      4     DG    C2'    127    -0.0854      12.01
   128         HC      4     DG   H2'1    128     0.0718      1.008
   129         HC      4     DG   H2'2    129     0.0718      1.008
   130         OS      4     DG    O3'    130    -0.5232         16   ; qtot -3.308
; residue   5 DT  rtp DT   q -1.0
   131          P      5     DT      P    131     1.1659      30.97
   132         O2      5     DT    O1P    132    -0.7761         16
   133         O2      5     DT    O2P    133    -0.7761         16
   134         OS      5     DT    O5'    134    -0.4954         16
   135         CI      5     DT    C5'    135    -0.0069      12.01
   136         H1      5     DT   H5'1    136     0.0754      1.008
   137         H1      5     DT   H5'2    137     0.0754      1.008
   138         CT      5     DT    C4'    138     0.1629      12.01
   139         H1      5     DT    H4'    139     0.1176      1.008
   140         OS      5     DT    O4'    140    -0.3691         16
   141         CT      5     DT    C1'    141      0.068      12.01
   142         H2      5     DT    H1'    142     0.1804      1.008
   143         N*      5     DT     N1    143    -0.0239      14.01
   144         C2      5     DT     C6    144    -0.2209      12.01
   145         H4      5     DT     H6    145     0.2607      1.008
   146         C2      5     DT     C5    146     0.0025      12.01
   147         CT      5     DT     C7    147    -0.2269      12.01
   148         HC      5     DT    H71    148      0.077      1.008
   149         HC      5     DT    H72    149      0.077      1.008
   150         HC      5     DT    H73    150      0.077      1.008
   151          C      5     DT     C4    151     0.5194      12.01
   152          O      5     DT     O4    152    -0.5563         16
   153         NA      5     DT     N3    153     -0.434      14.01
   154          H      5     DT     H3    154      0.342      1.008
   155          C      5     DT     C2    155     0.5677      12.01
   156          O      5     DT     O2    156    -0.5881         16
   157         CE      5     DT    C3'    157     0.0713     12.001
   158         H1      5     DT    H3'    158     0.0985      1.008
   159         CT      5     DT    C2'    159    -0.0854      12.01
   160         HC      5     DT   H2'1    160     0.0718      1.008
   161         HC      5     DT   H2'2    161     0.0718      1.008
   162         OS      5     DT    O3'    162    -0.5232         16   ; qtot -4.308
; residue   6 DG  rtp DG   q -1.0
   163          P      6     DG      P    163     1.1659      30.97
   164         O2      6     DG    O1P    164    -0.7761         16
   165         O2      6     DG    O2P    165    -0.7761         16
   166         OS      6     DG    O5'    166    -0.4954         16
   167         CI      6     DG    C5'    167    -0.0069      12.01
   168         H1      6     DG   H5'1    168     0.0754      1.008
   169         H1      6     DG   H5'2    169     0.0754      1.008
   170         CT      6     DG    C4'    170     0.1629      12.01
   171         H1      6     DG    H4'    171     0.1176      1.008
   172         OS      6     DG    O4'    172    -0.3691         16
   173         CT      6     DG    C1'    173     0.0358      12.01
   174         H2      6     DG    H1'    174     0.1746      1.008
   175         N*      6     DG     N9    175     0.0577      14.01
   176         CK      6     DG     C8    176     0.0736      12.01
   177         H5      6     DG     H8    177     0.1997      1.008
   178         NB      6     DG     N7    178    -0.5725      14.01
   179         CB      6     DG     C5    179     0.1991      12.01
   180          C      6     DG     C6    180     0.4918      12.01
   181          O      6     DG     O6    181    -0.5699         16
   182         NA      6     DG     N1    182    -0.5053      14.01
   183          H      6     DG     H1    183      0.352      1.008
   184         CA      6     DG     C2    184     0.7432      12.01
   185         N2      6     DG     N2    185     -0.923      14.01
   186          H      6     DG    H21    186     0.4235      1.008
   187          H      6     DG    H22    187     0.4235      1.008
   188         NC      6     DG     N3    188    -0.6636      14.01
   189         CB      6     DG     C4    189     0.1814      12.01
   190         CE      6     DG    C3'    190     0.0713     12.001
   191         H1      6     DG    H3'    191     0.0985      1.008
   192         CT      6     DG    C2'    192    -0.0854      12.01
   193         HC      6     DG   H2'1    193     0.0718      1.008
   194         HC      6     DG   H2'2    194     0.0718      1.008
   195         OS      6     DG    O3'    195    -0.5232         16   ; qtot -5.308
; residue   7 DA  rtp DA   q -1.0
   196          P      7     DA      P    196     1.1659      30.97
   197         O2      7     DA    O1P    197    -0.7761         16
   198         O2      7     DA    O2P    198    -0.7761         16
   199         OS      7     DA    O5'    199    -0.4954         16
   200         CI      7     DA    C5'    200    -0.0069      12.01
   201         H1      7     DA   H5'1    201     0.0754      1.008
   202         H1      7     DA   H5'2    202     0.0754      1.008
   203         CT      7     DA    C4'    203     0.1629      12.01
   204         H1      7     DA    H4'    204     0.1176      1.008
   205         OS      7     DA    O4'    205    -0.3691         16
   206         CT      7     DA    C1'    206     0.0431      12.01
   207         H2      7     DA    H1'    207     0.1838      1.008
   208         N*      7     DA     N9    208    -0.0268      14.01
   209         C1      7     DA     C8    209     0.1607      12.01
   210         H5      7     DA     H8    210     0.1877      1.008
   211         NB      7     DA     N7    211    -0.6175      14.01
   212         CB      7     DA     C5    212     0.0725      12.01
   213         CA      7     DA     C6    213     0.6897      12.01
   214         N2      7     DA     N6    214    -0.9123      14.01
   215          H      7     DA    H61    215     0.4167      1.008
   216          H      7     DA    H62    216     0.4167      1.008
   217         NC      7     DA     N1    217    -0.7624      14.01
   218         CQ      7     DA     C2    218     0.5716      12.01
   219         H5      7     DA     H2    219     0.0598      1.008
   220         NC      7     DA     N3    220    -0.7417      14.01
   221         CB      7     DA     C4    221       0.38      12.01
   222         CE      7     DA    C3'    222     0.0713     12.001
   223         H1      7     DA    H3'    223     0.0985      1.008
   224         CT      7     DA    C2'    224    -0.0854      12.01
   225         HC      7     DA   H2'1    225     0.0718      1.008
   226         HC      7     DA   H2'2    226     0.0718      1.008
   227         OS      7     DA    O3'    227    -0.5232         16   ; qtot -6.308
; residue   8 DT  rtp DT   q -1.0
   228          P      8     DT      P    228     1.1659      30.97
   229         O2      8     DT    O1P    229    -0.7761         16
   230         O2      8     DT    O2P    230    -0.7761         16
   231         OS      8     DT    O5'    231    -0.4954         16
   232         CI      8     DT    C5'    232    -0.0069      12.01
   233         H1      8     DT   H5'1    233     0.0754      1.008
   234         H1      8     DT   H5'2    234     0.0754      1.008
   235         CT      8     DT    C4'    235     0.1629      12.01
   236         H1      8     DT    H4'    236     0.1176      1.008
   237         OS      8     DT    O4'    237    -0.3691         16
   238         CT      8     DT    C1'    238      0.068      12.01
   239         H2      8     DT    H1'    239     0.1804      1.008
   240         N*      8     DT     N1    240    -0.0239      14.01
   241         C2      8     DT     C6    241    -0.2209      12.01
   242         H4      8     DT     H6    242     0.2607      1.008
   243         C2      8     DT     C5    243     0.0025      12.01
   244         CT      8     DT     C7    244    -0.2269      12.01
   245         HC      8     DT    H71    245      0.077      1.008
   246         HC      8     DT    H72    246      0.077      1.008
   247         HC      8     DT    H73    247      0.077      1.008
   248          C      8     DT     C4    248     0.5194      12.01
   249          O      8     DT     O4    249    -0.5563         16
   250         NA      8     DT     N3    250     -0.434      14.01
   251          H      8     DT     H3    251      0.342      1.008
   252          C      8     DT     C2    252     0.5677      12.01
   253          O      8     DT     O2    253    -0.5881         16
   254         CE      8     DT    C3'    254     0.0713     12.001
   255         H1      8     DT    H3'    255     0.0985      1.008
   256         CT      8     DT    C2'    256    -0.0854      12.01
   257         HC      8     DT   H2'1    257     0.0718      1.008
   258         HC      8     DT   H2'2    258     0.0718      1.008
   259         OS      8     DT    O3'    259    -0.5232         16   ; qtot -7.308
; residue   9 DT  rtp DT   q -1.0
   260          P      9     DT      P    260     1.1659      30.97
   261         O2      9     DT    O1P    261    -0.7761         16
   262         O2      9     DT    O2P    262    -0.7761         16
   263         OS      9     DT    O5'    263    -0.4954         16
   264         CI      9     DT    C5'    264    -0.0069      12.01
   265         H1      9     DT   H5'1    265     0.0754      1.008
   266         H1      9     DT   H5'2    266     0.0754      1.008
   267         CT      9     DT    C4'    267     0.1629      12.01
   268         H1      9     DT    H4'    268     0.1176      1.008
   269         OS      9     DT    O4'    269    -0.3691         16
   270         CT      9     DT    C1'    270      0.068      12.01
   271         H2      9     DT    H1'    271     0.1804      1.008
   272         N*      9     DT     N1    272    -0.0239      14.01
   273         C2      9     DT     C6    273    -0.2209      12.01
   274         H4      9     DT     H6    274     0.2607      1.008
   275         C2      9     DT     C5    275     0.0025      12.01
   276         CT      9     DT     C7    276    -0.2269      12.01
   277         HC      9     DT    H71    277      0.077      1.008
   278         HC      9     DT    H72    278      0.077      1.008
   279         HC      9     DT    H73    279      0.077      1.008
   280          C      9     DT     C4    280     0.5194      12.01
   281          O      9     DT     O4    281    -0.5563         16
   282         NA      9     DT     N3    282     -0.434      14.01
   283          H      9     DT     H3    283      0.342      1.008
   284          C      9     DT     C2    284     0.5677      12.01
   285          O      9     DT     O2    285    -0.5881         16
   286         CE      9     DT    C3'    286     0.0713     12.001
   287         H1      9     DT    H3'    287     0.0985      1.008
   288         CT      9     DT    C2'    288    -0.0854      12.01
   289         HC      9     DT   H2'1    289     0.0718      1.008
   290         HC      9     DT   H2'2    290     0.0718      1.008
   291         OS      9     DT    O3'    291    -0.5232         16   ; qtot -8.308
; residue  10 DG  rtp DG   q -1.0
   292          P     10     DG      P    292     1.1659      30.97
   293         O2     10     DG    O1P    293    -0.7761         16
   294         O2     10     DG    O2P    294    -0.7761         16
   295         OS     10     DG    O5'    295    -0.4954         16
   296         CI     10     DG    C5'    296    -0.0069      12.01
   297         H1     10     DG   H5'1    297     0.0754      1.008
   298         H1     10     DG   H5'2    298     0.0754      1.008
   299         CT     10     DG    C4'    299     0.1629      12.01
   300         H1     10     DG    H4'    300     0.1176      1.008
   301         OS     10     DG    O4'    301    -0.3691         16
   302         CT     10     DG    C1'    302     0.0358      12.01
   303         H2     10     DG    H1'    303     0.1746      1.008
   304         N*     10     DG     N9    304     0.0577      14.01
   305         CK     10     DG     C8    305     0.0736      12.01
   306         H5     10     DG     H8    306     0.1997      1.008
   307         NB     10     DG     N7    307    -0.5725      14.01
   308         CB     10     DG     C5    308     0.1991      12.01
   309          C     10     DG     C6    309     0.4918      12.01
   310          O     10     DG     O6    310    -0.5699         16
   311         NA     10     DG     N1    311    -0.5053      14.01
   312          H     10     DG     H1    312      0.352      1.008
   313         CA     10     DG     C2    313     0.7432      12.01
   314         N2     10     DG     N2    314     -0.923      14.01
   315          H     10     DG    H21    315     0.4235      1.008
   316          H     10     DG    H22    316     0.4235      1.008
   317         NC     10     DG     N3    317    -0.6636      14.01
   318         CB     10     DG     C4    318     0.1814      12.01
   319         CE     10     DG    C3'    319     0.0713     12.001
   320         H1     10     DG    H3'    320     0.0985      1.008
   321         CT     10     DG    C2'    321    -0.0854      12.01
   322         HC     10     DG   H2'1    322     0.0718      1.008
   323         HC     10     DG   H2'2    323     0.0718      1.008
   324         OS     10     DG    O3'    324    -0.5232         16   ; qtot -9.308
; residue  11 DT  rtp DT   q -1.0
   325          P     11     DT      P    325     1.1659      30.97
   326         O2     11     DT    O1P    326    -0.7761         16
   327         O2     11     DT    O2P    327    -0.7761         16
   328         OS     11     DT    O5'    328    -0.4954         16
   329         CI     11     DT    C5'    329    -0.0069      12.01
   330         H1     11     DT   H5'1    330     0.0754      1.008
   331         H1     11     DT   H5'2    331     0.0754      1.008
   332         CT     11     DT    C4'    332     0.1629      12.01
   333         H1     11     DT    H4'    333     0.1176      1.008
   334         OS     11     DT    O4'    334    -0.3691         16
   335         CT     11     DT    C1'    335      0.068      12.01
   336         H2     11     DT    H1'    336     0.1804      1.008
   337         N*     11     DT     N1    337    -0.0239      14.01
   338         C2     11     DT     C6    338    -0.2209      12.01
   339         H4     11     DT     H6    339     0.2607      1.008
   340         C2     11     DT     C5    340     0.0025      12.01
   341         CT     11     DT     C7    341    -0.2269      12.01
   342         HC     11     DT    H71    342      0.077      1.008
   343         HC     11     DT    H72    343      0.077      1.008
   344         HC     11     DT    H73    344      0.077      1.008
   345          C     11     DT     C4    345     0.5194      12.01
   346          O     11     DT     O4    346    -0.5563         16
   347         NA     11     DT     N3    347     -0.434      14.01
   348          H     11     DT     H3    348      0.342      1.008
   349          C     11     DT     C2    349     0.5677      12.01
   350          O     11     DT     O2    350    -0.5881         16
   351         CE     11     DT    C3'    351     0.0713     12.001
   352         H1     11     DT    H3'    352     0.0985      1.008
   353         CT     11     DT    C2'    353    -0.0854      12.01
   354         HC     11     DT   H2'1    354     0.0718      1.008
   355         HC     11     DT   H2'2    355     0.0718      1.008
   356         OS     11     DT    O3'    356    -0.5232         16   ; qtot -10.31
; residue  12 DT  rtp DT   q -1.0
   357          P     12     DT      P    357     1.1659      30.97
   358         O2     12     DT    O1P    358    -0.7761         16
   359         O2     12     DT    O2P    359    -0.7761         16
   360         OS     12     DT    O5'    360    -0.4954         16
   361         CI     12     DT    C5'    361    -0.0069      12.01
   362         H1     12     DT   H5'1    362     0.0754      1.008
   363         H1     12     DT   H5'2    363     0.0754      1.008
   364         CT     12     DT    C4'    364     0.1629      12.01
   365         H1     12     DT    H4'    365     0.1176      1.008
   366         OS     12     DT    O4'    366    -0.3691         16
   367         CT     12     DT    C1'    367      0.068      12.01
   368         H2     12     DT    H1'    368     0.1804      1.008
   369         N*     12     DT     N1    369    -0.0239      14.01
   370         C2     12     DT     C6    370    -0.2209      12.01
   371         H4     12     DT     H6    371     0.2607      1.008
   372         C2     12     DT     C5    372     0.0025      12.01
   373         CT     12     DT     C7    373    -0.2269      12.01
   374         HC     12     DT    H71    374      0.077      1.008
   375         HC     12     DT    H72    375      0.077      1.008
   376         HC     12     DT    H73    376      0.077      1.008
   377          C     12     DT     C4    377     0.5194      12.01
   378          O     12     DT     O4    378    -0.5563         16
   379         NA     12     DT     N3    379     -0.434      14.01
   380          H     12     DT     H3    380      0.342      1.008
   381          C     12     DT     C2    381     0.5677      12.01
   382          O     12     DT     O2    382    -0.5881         16
   383         CE     12     DT    C3'    383     0.0713     12.001
   384         H1     12     DT    H3'    384     0.0985      1.008
   385         CT     12     DT    C2'    385    -0.0854      12.01
   386         HC     12     DT   H2'1    386     0.0718      1.008
   387         HC     12     DT   H2'2    387     0.0718      1.008
   388         OS     12     DT    O3'    388    -0.5232         16   ; qtot -11.31
; residue  13 DC  rtp DC   q -1.0
   389          P     13     DC      P    389     1.1659      30.97
   390         O2     13     DC    O1P    390    -0.7761         16
   391         O2     13     DC    O2P    391    -0.7761         16
   392         OS     13     DC    O5'    392    -0.4954         16
   393         CI     13     DC    C5'    393    -0.0069      12.01
   394         H1     13     DC   H5'1    394     0.0754      1.008
   395         H1     13     DC   H5'2    395     0.0754      1.008
   396         CT     13     DC    C4'    396     0.1629      12.01
   397         H1     13     DC    H4'    397     0.1176      1.008
   398         OS     13     DC    O4'    398    -0.3691         16
   399         CT     13     DC    C1'    399    -0.0116      12.01
   400         H2     13     DC    H1'    400     0.1963      1.008
   401         N*     13     DC     N1    401    -0.0339      14.01
   402         CM     13     DC     C6    402    -0.0183      12.01
   403         H4     13     DC     H6    403     0.2293      1.008
   404         CM     13     DC     C5    404    -0.5222      12.01
   405         HA     13     DC     H5    405     0.1863      1.008
   406         CA     13     DC     C4    406     0.8439      12.01
   407         N2     13     DC     N4    407    -0.9773      14.01
   408          H     13     DC    H41    408     0.4314      1.008
   409          H     13     DC    H42    409     0.4314      1.008
   410         NC     13     DC     N3    410    -0.7748      14.01
   411          C     13     DC     C2    411     0.7959      12.01
   412          O     13     DC     O2    412    -0.6548         16
   413         CE     13     DC    C3'    413     0.0713     12.001
   414         H1     13     DC    H3'    414     0.0985      1.008
   415         CT     13     DC    C2'    415    -0.0854      12.01
   416         HC     13     DC   H2'1    416     0.0718      1.008
   417         HC     13     DC   H2'2    417     0.0718      1.008
   418         OS     13     DC    O3'    418    -0.5232         16   ; qtot -12.31
; residue  14 DA  rtp DA   q -1.0
   419          P     14     DA      P    419     1.1659      30.97
   420         O2     14     DA    O1P    420    -0.7761         16
   421         O2     14     DA    O2P    421    -0.7761         16
   422         OS     14     DA    O5'    422    -0.4954         16
   423         CI     14     DA    C5'    423    -0.0069      12.01
   424         H1     14     DA   H5'1    424     0.0754      1.008
   425         H1     14     DA   H5'2    425     0.0754      1.008
   426         CT     14     DA    C4'    426     0.1629      12.01
   427         H1     14     DA    H4'    427     0.1176      1.008
   428         OS     14     DA    O4'    428    -0.3691         16
   429         CT     14     DA    C1'    429     0.0431      12.01
   430         H2     14     DA    H1'    430     0.1838      1.008
   431         N*     14     DA     N9    431    -0.0268      14.01
   432         C1     14     DA     C8    432     0.1607      12.01
   433         H5     14     DA     H8    433     0.1877      1.008
   434         NB     14     DA     N7    434    -0.6175      14.01
   435         CB     14     DA     C5    435     0.0725      12.01
   436         CA     14     DA     C6    436     0.6897      12.01
   437         N2     14     DA     N6    437    -0.9123      14.01
   438          H     14     DA    H61    438     0.4167      1.008
   439          H     14     DA    H62    439     0.4167      1.008
   440         NC     14     DA     N1    440    -0.7624      14.01
   441         CQ     14     DA     C2    441     0.5716      12.01
   442         H5     14     DA     H2    442     0.0598      1.008
   443         NC     14     DA     N3    443    -0.7417      14.01
   444         CB     14     DA     C4    444       0.38      12.01
   445         CE     14     DA    C3'    445     0.0713     12.001
   446         H1     14     DA    H3'    446     0.0985      1.008
   447         CT     14     DA    C2'    447    -0.0854      12.01
   448         HC     14     DA   H2'1    448     0.0718      1.008
   449         HC     14     DA   H2'2    449     0.0718      1.008
   450         OS     14     DA    O3'    450    -0.5232         16   ; qtot -13.31
; residue  15 DG  rtp DG3  q -0.7
   451          P     15     DG      P    451     1.1659      30.97
   452         O2     15     DG    O1P    452    -0.7761         16
   453         O2     15     DG    O2P    453    -0.7761         16
   454         OS     15     DG    O5'    454    -0.4954         16
   455         CI     15     DG    C5'    455    -0.0069      12.01
   456         H1     15     DG   H5'1    456     0.0754      1.008
   457         H1     15     DG   H5'2    457     0.0754      1.008
   458         CT     15     DG    C4'    458     0.1629      12.01
   459         H1     15     DG    H4'    459     0.1176      1.008
   460         OS     15     DG    O4'    460    -0.3691         16
   461         CT     15     DG    C1'    461     0.0358      12.01
   462         H2     15     DG    H1'    462     0.1746      1.008
   463         N*     15     DG     N9    463     0.0577      14.01
   464         CK     15     DG     C8    464     0.0736      12.01
   465         H5     15     DG     H8    465     0.1997      1.008
   466         NB     15     DG     N7    466    -0.5725      14.01
   467         CB     15     DG     C5    467     0.1991      12.01
   468          C     15     DG     C6    468     0.4918      12.01
   469          O     15     DG     O6    469    -0.5699         16
   470         NA     15     DG     N1    470    -0.5053      14.01
   471          H     15     DG     H1    471      0.352      1.008
   472         CA     15     DG     C2    472     0.7432      12.01
   473         N2     15     DG     N2    473     -0.923      14.01
   474          H     15     DG    H21    474     0.4235      1.008
   475          H     15     DG    H22    475     0.4235      1.008
   476         NC     15     DG     N3    476    -0.6636      14.01
   477         CB     15     DG     C4    477     0.1814      12.01
   478         CE     15     DG    C3'    478     0.0713     12.001
   479         H1     15     DG    H3'    479     0.0985      1.008
   480         CT     15     DG    C2'    480    -0.0854      12.01
   481         HC     15     DG   H2'1    481     0.0718      1.008
   482         HC     15     DG   H2'2    482     0.0718      1.008
   483         OH     15     DG    O3'    483    -0.6549         16
   484         HO     15     DG    H3T    484     0.4396      1.008   ; qtot -14

[ bonds ]
;  ai    aj funct            c0            c1            c2            c3
    1     2     1 
    1     3     1 
    3     4     1 
    3     5     1 
    3     6     1 
    6     7     1 
    6     8     1 
    6    26     1 
    8     9     1 
    9    10     1 
    9    11     1 
    9    28     1 
   11    12     1 
   11    25     1 
   12    13     1 
   12    14     1 
   14    15     1 
   15    16     1 
   15    25     1 
   16    17     1 
   16    18     1 
   18    19     1 
   18    20     1 
   20    21     1 
   20    24     1 
   21    22     1 
   21    23     1 
   24    25     1 
   26    27     1 
   26    28     1 
   26    31     1 
   28    29     1 
   28    30     1 
   31    32     1 
   32    33     1 
   32    34     1 
   32    35     1 
   35    36     1 
   36    37     1 
   36    38     1 
   36    39     1 
   39    40     1 
   39    41     1 
   39    59     1 
   41    42     1 
   42    43     1 
   42    44     1 
   42    61     1 
   44    45     1 
   44    58     1 
   45    46     1 
   45    47     1 
   47    48     1 
   48    49     1 
   48    58     1 
   49    50     1 
   49    51     1 
   51    52     1 
   51    53     1 
   53    54     1 
   53    57     1 
   54    55     1 
   54    56     1 
   57    58     1 
   59    60     1 
   59    61     1 
   59    64     1 
   61    62     1 
   61    63     1 
   64    65     1 
   65    66     1 
   65    67     1 
   65    68     1 
   68    69     1 
   69    70     1 
   69    71     1 
   69    72     1 
   72    73     1 
   72    74     1 
   72    92     1 
   74    75     1 
   75    76     1 
   75    77     1 
   75    94     1 
   77    78     1 
   77    91     1 
   78    79     1 
   78    80     1 
   80    81     1 
   81    82     1 
   81    91     1 
   82    83     1 
   82    84     1 
   84    85     1 
   84    86     1 
   86    87     1 
   86    90     1 
   87    88     1 
   87    89     1 
   90    91     1 
   92    93     1 
   92    94     1 
   92    97     1 
   94    95     1 
   94    96     1 
   97    98     1 
   98    99     1 
   98   100     1 
   98   101     1 
  101   102     1 
  102   103     1 
  102   104     1 
  102   105     1 
  105   106     1 
  105   107     1 
  105   125     1 
  107   108     1 
  108   109     1 
  108   110     1 
  108   127     1 
  110   111     1 
  110   124     1 
  111   112     1 
  111   113     1 
  113   114     1 
  114   115     1 
  114   124     1 
  115   116     1 
  115   117     1 
  117   118     1 
  117   119     1 
  119   120     1 
  119   123     1 
  120   121     1 
  120   122     1 
  123   124     1 
  125   126     1 
  125   127     1 
  125   130     1 
  127   128     1 
  127   129     1 
  130   131     1 
  131   132     1 
  131   133     1 
  131   134     1 
  134   135     1 
  135   136     1 
  135   137     1 
  135   138     1 
  138   139     1 
  138   140     1 
  138   157     1 
  140   141     1 
  141   142     1 
  141   143     1 
  141   159     1 
  143   144     1 
  143   155     1 
  144   145     1 
  144   146     1 
  146   147     1 
  146   151     1 
  147   148     1 
  147   149     1 
  147   150     1 
  151   152     1 
  151   153     1 
  153   154     1 
  153   155     1 
  155   156     1 
  157   158     1 
  157   159     1 
  157   162     1 
  159   160     1 
  159   161     1 
  162   163     1 
  163   164     1 
  163   165     1 
  163   166     1 
  166   167     1 
  167   168     1 
  167   169     1 
  167   170     1 
  170   171     1 
  170   172     1 
  170   190     1 
  172   173     1 
  173   174     1 
  173   175     1 
  173   192     1 
  175   176     1 
  175   189     1 
  176   177     1 
  176   178     1 
  178   179     1 
  179   180     1 
  179   189     1 
  180   181     1 
  180   182     1 
  182   183     1 
  182   184     1 
  184   185     1 
  184   188     1 
  185   186     1 
  185   187     1 
  188   189     1 
  190   191     1 
  190   192     1 
  190   195     1 
  192   193     1 
  192   194     1 
  195   196     1 
  196   197     1 
  196   198     1 
  196   199     1 
  199   200     1 
  200   201     1 
  200   202     1 
  200   203     1 
  203   204     1 
  203   205     1 
  203   222     1 
  205   206     1 
  206   207     1 
  206   208     1 
  206   224     1 
  208   209     1 
  208   221     1 
  209   210     1 
  209   211     1 
  211   212     1 
  212   213     1 
  212   221     1 
  213   214     1 
  213   217     1 
  214   215     1 
  214   216     1 
  217   218     1 
  218   219     1 
  218   220     1 
  220   221     1 
  222   223     1 
  222   224     1 
  222   227     1 
  224   225     1 
  224   226     1 
  227   228     1 
  228   229     1 
  228   230     1 
  228   231     1 
  231   232     1 
  232   233     1 
  232   234     1 
  232   235     1 
  235   236     1 
  235   237     1 
  235   254     1 
  237   238     1 
  238   239     1 
  238   240     1 
  238   256     1 
  240   241     1 
  240   252     1 
  241   242     1 
  241   243     1 
  243   244     1 
  243   248     1 
  244   245     1 
  244   246     1 
  244   247     1 
  248   249     1 
  248   250     1 
  250   251     1 
  250   252     1 
  252   253     1 
  254   255     1 
  254   256     1 
  254   259     1 
  256   257     1 
  256   258     1 
  259   260     1 
  260   261     1 
  260   262     1 
  260   263     1 
  263   264     1 
  264   265     1 
  264   266     1 
  264   267     1 
  267   268     1 
  267   269     1 
  267   286     1 
  269   270     1 
  270   271     1 
  270   272     1 
  270   288     1 
  272   273     1 
  272   284     1 
  273   274     1 
  273   275     1 
  275   276     1 
  275   280     1 
  276   277     1 
  276   278     1 
  276   279     1 
  280   281     1 
  280   282     1 
  282   283     1 
  282   284     1 
  284   285     1 
  286   287     1 
  286   288     1 
  286   291     1 
  288   289     1 
  288   290     1 
  291   292     1 
  292   293     1 
  292   294     1 
  292   295     1 
  295   296     1 
  296   297     1 
  296   298     1 
  296   299     1 
  299   300     1 
  299   301     1 
  299   319     1 
  301   302     1 
  302   303     1 
  302   304     1 
  302   321     1 
  304   305     1 
  304   318     1 
  305   306     1 
  305   307     1 
  307   308     1 
  308   309     1 
  308   318     1 
  309   310     1 
  309   311     1 
  311   312     1 
  311   313     1 
  313   314     1 
  313   317     1 
  314   315     1 
  314   316     1 
  317   318     1 
  319   320     1 
  319   321     1 
  319   324     1 
  321   322     1 
  321   323     1 
  324   325     1 
  325   326     1 
  325   327     1 
  325   328     1 
  328   329     1 
  329   330     1 
  329   331     1 
  329   332     1 
  332   333     1 
  332   334     1 
  332   351     1 
  334   335     1 
  335   336     1 
  335   337     1 
  335   353     1 
  337   338     1 
  337   349     1 
  338   339     1 
  338   340     1 
  340   341     1 
  340   345     1 
  341   342     1 
  341   343     1 
  341   344     1 
  345   346     1 
  345   347     1 
  347   348     1 
  347   349     1 
  349   350     1 
  351   352     1 
  351   353     1 
  351   356     1 
  353   354     1 
  353   355     1 
  356   357     1 
  357   358     1 
  357   359     1 
  357   360     1 
  360   361     1 
  361   362     1 
  361   363     1 
  361   364     1 
  364   365     1 
  364   366     1 
  364   383     1 
  366   367     1 
  367   368     1 
  367   369     1 
  367   385     1 
  369   370     1 
  369   381     1 
  370   371     1 
  370   372     1 
  372   373     1 
  372   377     1 
  373   374     1 
  373   375     1 
  373   376     1 
  377   378     1 
  377   379     1 
  379   380     1 
  379   381     1 
  381   382     1 
  383   384     1 
  383   385     1 
  383   388     1 
  385   386     1 
  385   387     1 
  388   389     1 
  389   390     1 
  389   391     1 
  389   392     1 
  392   393     1 
  393   394     1 
  393   395     1 
  393   396     1 
  396   397     1 
  396   398     1 
  396   413     1 
  398   399     1 
  399   400     1 
  399   401     1 
  399   415     1 
  401   402     1 
  401   411     1 
  402   403     1 
  402   404     1 
  404   405     1 
  404   406     1 
  406   407     1 
  406   410     1 
  407   408     1 
  407   409     1 
  410   411     1 
  411   412     1 
  413   414     1 
  413   415     1 
  413   418     1 
  415   416     1 
  415   417     1 
  418   419     1 
  419   420     1 
  419   421     1 
  419   422     1 
  422   423     1 
  423   424     1 
  423   425     1 
  423   426     1 
  426   427     1 
  426   428     1 
  426   445     1 
  428   429     1 
  429   430     1 
  429   431     1 
  429   447     1 
  431   432     1 
  431   444     1 
  432   433     1 
  432   434     1 
  434   435     1 
  435   436     1 
  435   444     1 
  436   437     1 
  436   440     1 
  437   438     1 
  437   439     1 
  440   441     1 
  441   442     1 
  441   443     1 
  443   444     1 
  445   446     1 
  445   447     1 
  445   450     1 
  447   448     1 
  447   449     1 
  450   451     1 
  451   452     1 
  451   453     1 
  451   454     1 
  454   455     1 
  455   456     1 
  455   457     1 
  455   458     1 
  458   459     1 
  458   460     1 
  458   478     1 
  460   461     1 
  461   462     1 
  461   463     1 
  461   480     1 
  463   464     1 
  463   477     1 
  464   465     1 
  464   466     1 
  466   467     1 
  467   468     1 
  467   477     1 
  468   469     1 
  468   470     1 
  470   471     1 
  470   472     1 
  472   473     1 
  472   476     1 
  473   474     1 
  473   475     1 
  476   477     1 
  478   479     1 
  478   480     1 
  478   483     1 
  480   481     1 
  480   482     1 
  483   484     1 

[ pairs ]
;  ai    aj funct            c0            c1            c2            c3
    1     7     1 
    1     8     1 
    1    26     1 
    2     4     1 
    2     5     1 
    2     6     1 
    3     9     1 
    3    27     1 
    3    28     1 
    3    31     1 
    4     7     1 
    4     8     1 
    4    26     1 
    5     7     1 
    5     8     1 
    5    26     1 
    6    10     1 
    6    11     1 
    6    29     1 
    6    30     1 
    6    32     1 
    7     9     1 
    7    27     1 
    7    28     1 
    7    31     1 
    8    12     1 
    8    25     1 
    8    27     1 
    8    29     1 
    8    30     1 
    8    31     1 
    9    13     1 
    9    14     1 
    9    15     1 
    9    24     1 
    9    27     1 
    9    31     1 
   10    12     1 
   10    25     1 
   10    26     1 
   10    29     1 
   10    30     1 
   11    16     1 
   11    20     1 
   11    26     1 
   11    29     1 
   11    30     1 
   12    16     1 
   12    24     1 
   12    28     1 
   13    15     1 
   13    25     1 
   14    17     1 
   14    18     1 
   14    24     1 
   15    19     1 
   15    20     1 
   16    21     1 
   16    24     1 
   17    19     1 
   17    20     1 
   17    25     1 
   18    22     1 
   18    23     1 
   18    25     1 
   19    21     1 
   19    24     1 
   21    25     1 
   22    24     1 
   23    24     1 
   25    28     1 
   26    33     1 
   26    34     1 
   26    35     1 
   27    29     1 
   27    30     1 
   27    32     1 
   28    32     1 
   29    31     1 
   30    31     1 
   31    36     1 
   32    37     1 
   32    38     1 
   32    39     1 
   33    36     1 
   34    36     1 
   35    40     1 
   35    41     1 
   35    59     1 
   36    42     1 
   36    60     1 
   36    61     1 
   36    64     1 
   37    40     1 
   37    41     1 
   37    59     1 
   38    40     1 
   38    41     1 
   38    59     1 
   39    43     1 
   39    44     1 
   39    62     1 
   39    63     1 
   39    65     1 
   40    42     1 
   40    60     1 
   40    61     1 
   40    64     1 
   41    45     1 
   41    58     1 
   41    60     1 
   41    62     1 
   41    63     1 
   41    64     1 
   42    46     1 
   42    47     1 
   42    48     1 
   42    57     1 
   42    60     1 
   42    64     1 
   43    45     1 
   43    58     1 
   43    59     1 
   43    62     1 
   43    63     1 
   44    49     1 
   44    53     1 
   44    59     1 
   44    62     1 
   44    63     1 
   45    49     1 
   45    57     1 
   45    61     1 
   46    48     1 
   46    58     1 
   47    50     1 
   47    51     1 
   47    57     1 
   48    52     1 
   48    53     1 
   49    54     1 
   49    57     1 
   50    52     1 
   50    53     1 
   50    58     1 
   51    55     1 
   51    56     1 
   51    58     1 
   52    54     1 
   52    57     1 
   54    58     1 
   55    57     1 
   56    57     1 
   58    61     1 
   59    66     1 
   59    67     1 
   59    68     1 
   60    62     1 
   60    63     1 
   60    65     1 
   61    65     1 
   62    64     1 
   63    64     1 
   64    69     1 
   65    70     1 
   65    71     1 
   65    72     1 
   66    69     1 
   67    69     1 
   68    73     1 
   68    74     1 
   68    92     1 
   69    75     1 
   69    93     1 
   69    94     1 
   69    97     1 
   70    73     1 
   70    74     1 
   70    92     1 
   71    73     1 
   71    74     1 
   71    92     1 
   72    76     1 
   72    77     1 
   72    95     1 
   72    96     1 
   72    98     1 
   73    75     1 
   73    93     1 
   73    94     1 
   73    97     1 
   74    78     1 
   74    91     1 
   74    93     1 
   74    95     1 
   74    96     1 
   74    97     1 
   75    79     1 
   75    80     1 
   75    81     1 
   75    90     1 
   75    93     1 
   75    97     1 
   76    78     1 
   76    91     1 
   76    92     1 
   76    95     1 
   76    96     1 
   77    82     1 
   77    86     1 
   77    92     1 
   77    95     1 
   77    96     1 
   78    82     1 
   78    90     1 
   78    94     1 
   79    81     1 
   79    91     1 
   80    83     1 
   80    84     1 
   80    90     1 
   81    85     1 
   81    86     1 
   82    87     1 
   82    90     1 
   83    85     1 
   83    86     1 
   83    91     1 
   84    88     1 
   84    89     1 
   84    91     1 
   85    87     1 
   85    90     1 
   87    91     1 
   88    90     1 
   89    90     1 
   91    94     1 
   92    99     1 
   92   100     1 
   92   101     1 
   93    95     1 
   93    96     1 
   93    98     1 
   94    98     1 
   95    97     1 
   96    97     1 
   97   102     1 
   98   103     1 
   98   104     1 
   98   105     1 
   99   102     1 
  100   102     1 
  101   106     1 
  101   107     1 
  101   125     1 
  102   108     1 
  102   126     1 
  102   127     1 
  102   130     1 
  103   106     1 
  103   107     1 
  103   125     1 
  104   106     1 
  104   107     1 
  104   125     1 
  105   109     1 
  105   110     1 
  105   128     1 
  105   129     1 
  105   131     1 
  106   108     1 
  106   126     1 
  106   127     1 
  106   130     1 
  107   111     1 
  107   124     1 
  107   126     1 
  107   128     1 
  107   129     1 
  107   130     1 
  108   112     1 
  108   113     1 
  108   114     1 
  108   123     1 
  108   126     1 
  108   130     1 
  109   111     1 
  109   124     1 
  109   125     1 
  109   128     1 
  109   129     1 
  110   115     1 
  110   119     1 
  110   125     1 
  110   128     1 
  110   129     1 
  111   115     1 
  111   123     1 
  111   127     1 
  112   114     1 
  112   124     1 
  113   116     1 
  113   117     1 
  113   123     1 
  114   118     1 
  114   119     1 
  115   120     1 
  115   123     1 
  116   118     1 
  116   119     1 
  116   124     1 
  117   121     1 
  117   122     1 
  117   124     1 
  118   120     1 
  118   123     1 
  120   124     1 
  121   123     1 
  122   123     1 
  124   127     1 
  125   132     1 
  125   133     1 
  125   134     1 
  126   128     1 
  126   129     1 
  126   131     1 
  127   131     1 
  128   130     1 
  129   130     1 
  130   135     1 
  131   136     1 
  131   137     1 
  131   138     1 
  132   135     1 
  133   135     1 
  134   139     1 
  134   140     1 
  134   157     1 
  135   141     1 
  135   158     1 
  135   159     1 
  135   162     1 
  136   139     1 
  136   140     1 
  136   157     1 
  137   139     1 
  137   140     1 
  137   157     1 
  138   142     1 
  138   143     1 
  138   160     1 
  138   161     1 
  138   163     1 
  139   141     1 
  139   158     1 
  139   159     1 
  139   162     1 
  140   144     1 
  140   155     1 
  140   158     1 
  140   160     1 
  140   161     1 
  140   162     1 
  141   145     1 
  141   146     1 
  141   153     1 
  141   156     1 
  141   158     1 
  141   162     1 
  142   144     1 
  142   155     1 
  142   157     1 
  142   160     1 
  142   161     1 
  143   147     1 
  143   151     1 
  143   154     1 
  143   157     1 
  143   160     1 
  143   161     1 
  144   148     1 
  144   149     1 
  144   150     1 
  144   152     1 
  144   153     1 
  144   156     1 
  144   159     1 
  145   147     1 
  145   151     1 
  145   155     1 
  146   154     1 
  146   155     1 
  147   152     1 
  147   153     1 
  148   151     1 
  149   151     1 
  150   151     1 
  151   156     1 
  152   154     1 
  152   155     1 
  154   156     1 
  155   159     1 
  157   164     1 
  157   165     1 
  157   166     1 
  158   160     1 
  158   161     1 
  158   163     1 
  159   163     1 
  160   162     1 
  161   162     1 
  162   167     1 
  163   168     1 
  163   169     1 
  163   170     1 
  164   167     1 
  165   167     1 
  166   171     1 
  166   172     1 
  166   190     1 
  167   173     1 
  167   191     1 
  167   192     1 
  167   195     1 
  168   171     1 
  168   172     1 
  168   190     1 
  169   171     1 
  169   172     1 
  169   190     1 
  170   174     1 
  170   175     1 
  170   193     1 
  170   194     1 
  170   196     1 
  171   173     1 
  171   191     1 
  171   192     1 
  171   195     1 
  172   176     1 
  172   189     1 
  172   191     1 
  172   193     1 
  172   194     1 
  172   195     1 
  173   177     1 
  173   178     1 
  173   179     1 
  173   188     1 
  173   191     1 
  173   195     1 
  174   176     1 
  174   189     1 
  174   190     1 
  174   193     1 
  174   194     1 
  175   180     1 
  175   184     1 
  175   190     1 
  175   193     1 
  175   194     1 
  176   180     1 
  176   188     1 
  176   192     1 
  177   179     1 
  177   189     1 
  178   181     1 
  178   182     1 
  178   188     1 
  179   183     1 
  179   184     1 
  180   185     1 
  180   188     1 
  181   183     1 
  181   184     1 
  181   189     1 
  182   186     1 
  182   187     1 
  182   189     1 
  183   185     1 
  183   188     1 
  185   189     1 
  186   188     1 
  187   188     1 
  189   192     1 
  190   197     1 
  190   198     1 
  190   199     1 
  191   193     1 
  191   194     1 
  191   196     1 
  192   196     1 
  193   195     1 
  194   195     1 
  195   200     1 
  196   201     1 
  196   202     1 
  196   203     1 
  197   200     1 
  198   200     1 
  199   204     1 
  199   205     1 
  199   222     1 
  200   206     1 
  200   223     1 
  200   224     1 
  200   227     1 
  201   204     1 
  201   205     1 
  201   222     1 
  202   204     1 
  202   205     1 
  202   222     1 
  203   207     1 
  203   208     1 
  203   225     1 
  203   226     1 
  203   228     1 
  204   206     1 
  204   223     1 
  204   224     1 
  204   227     1 
  205   209     1 
  205   221     1 
  205   223     1 
  205   225     1 
  205   226     1 
  205   227     1 
  206   210     1 
  206   211     1 
  206   212     1 
  206   220     1 
  206   223     1 
  206   227     1 
  207   209     1 
  207   221     1 
  207   222     1 
  207   225     1 
  207   226     1 
  208   213     1 
  208   218     1 
  208   222     1 
  208   225     1 
  208   226     1 
  209   213     1 
  209   220     1 
  209   224     1 
  210   212     1 
  210   221     1 
  211   214     1 
  211   217     1 
  211   220     1 
  212   215     1 
  212   216     1 
  212   218     1 
  213   219     1 
  213   220     1 
  214   218     1 
  214   221     1 
  215   217     1 
  216   217     1 
  217   221     1 
  219   221     1 
  221   224     1 
  222   229     1 
  222   230     1 
  222   231     1 
  223   225     1 
  223   226     1 
  223   228     1 
  224   228     1 
  225   227     1 
  226   227     1 
  227   232     1 
  228   233     1 
  228   234     1 
  228   235     1 
  229   232     1 
  230   232     1 
  231   236     1 
  231   237     1 
  231   254     1 
  232   238     1 
  232   255     1 
  232   256     1 
  232   259     1 
  233   236     1 
  233   237     1 
  233   254     1 
  234   236     1 
  234   237     1 
  234   254     1 
  235   239     1 
  235   240     1 
  235   257     1 
  235   258     1 
  235   260     1 
  236   238     1 
  236   255     1 
  236   256     1 
  236   259     1 
  237   241     1 
  237   252     1 
  237   255     1 
  237   257     1 
  237   258     1 
  237   259     1 
  238   242     1 
  238   243     1 
  238   250     1 
  238   253     1 
  238   255     1 
  238   259     1 
  239   241     1 
  239   252     1 
  239   254     1 
  239   257     1 
  239   258     1 
  240   244     1 
  240   248     1 
  240   251     1 
  240   254     1 
  240   257     1 
  240   258     1 
  241   245     1 
  241   246     1 
  241   247     1 
  241   249     1 
  241   250     1 
  241   253     1 
  241   256     1 
  242   244     1 
  242   248     1 
  242   252     1 
  243   251     1 
  243   252     1 
  244   249     1 
  244   250     1 
  245   248     1 
  246   248     1 
  247   248     1 
  248   253     1 
  249   251     1 
  249   252     1 
  251   253     1 
  252   256     1 
  254   261     1 
  254   262     1 
  254   263     1 
  255   257     1 
  255   258     1 
  255   260     1 
  256   260     1 
  257   259     1 
  258   259     1 
  259   264     1 
  260   265     1 
  260   266     1 
  260   267     1 
  261   264     1 
  262   264     1 
  263   268     1 
  263   269     1 
  263   286     1 
  264   270     1 
  264   287     1 
  264   288     1 
  264   291     1 
  265   268     1 
  265   269     1 
  265   286     1 
  266   268     1 
  266   269     1 
  266   286     1 
  267   271     1 
  267   272     1 
  267   289     1 
  267   290     1 
  267   292     1 
  268   270     1 
  268   287     1 
  268   288     1 
  268   291     1 
  269   273     1 
  269   284     1 
  269   287     1 
  269   289     1 
  269   290     1 
  269   291     1 
  270   274     1 
  270   275     1 
  270   282     1 
  270   285     1 
  270   287     1 
  270   291     1 
  271   273     1 
  271   284     1 
  271   286     1 
  271   289     1 
  271   290     1 
  272   276     1 
  272   280     1 
  272   283     1 
  272   286     1 
  272   289     1 
  272   290     1 
  273   277     1 
  273   278     1 
  273   279     1 
  273   281     1 
  273   282     1 
  273   285     1 
  273   288     1 
  274   276     1 
  274   280     1 
  274   284     1 
  275   283     1 
  275   284     1 
  276   281     1 
  276   282     1 
  277   280     1 
  278   280     1 
  279   280     1 
  280   285     1 
  281   283     1 
  281   284     1 
  283   285     1 
  284   288     1 
  286   293     1 
  286   294     1 
  286   295     1 
  287   289     1 
  287   290     1 
  287   292     1 
  288   292     1 
  289   291     1 
  290   291     1 
  291   296     1 
  292   297     1 
  292   298     1 
  292   299     1 
  293   296     1 
  294   296     1 
  295   300     1 
  295   301     1 
  295   319     1 
  296   302     1 
  296   320     1 
  296   321     1 
  296   324     1 
  297   300     1 
  297   301     1 
  297   319     1 
  298   300     1 
  298   301     1 
  298   319     1 
  299   303     1 
  299   304     1 
  299   322     1 
  299   323     1 
  299   325     1 
  300   302     1 
  300   320     1 
  300   321     1 
  300   324     1 
  301   305     1 
  301   318     1 
  301   320     1 
  301   322     1 
  301   323     1 
  301   324     1 
  302   306     1 
  302   307     1 
  302   308     1 
  302   317     1 
  302   320     1 
  302   324     1 
  303   305     1 
  303   318     1 
  303   319     1 
  303   322     1 
  303   323     1 
  304   309     1 
  304   313     1 
  304   319     1 
  304   322     1 
  304   323     1 
  305   309     1 
  305   317     1 
  305   321     1 
  306   308     1 
  306   318     1 
  307   310     1 
  307   311     1 
  307   317     1 
  308   312     1 
  308   313     1 
  309   314     1 
  309   317     1 
  310   312     1 
  310   313     1 
  310   318     1 
  311   315     1 
  311   316     1 
  311   318     1 
  312   314     1 
  312   317     1 
  314   318     1 
  315   317     1 
  316   317     1 
  318   321     1 
  319   326     1 
  319   327     1 
  319   328     1 
  320   322     1 
  320   323     1 
  320   325     1 
  321   325     1 
  322   324     1 
  323   324     1 
  324   329     1 
  325   330     1 
  325   331     1 
  325   332     1 
  326   329     1 
  327   329     1 
  328   333     1 
  328   334     1 
  328   351     1 
  329   335     1 
  329   352     1 
  329   353     1 
  329   356     1 
  330   333     1 
  330   334     1 
  330   351     1 
  331   333     1 
  331   334     1 
  331   351     1 
  332   336     1 
  332   337     1 
  332   354     1 
  332   355     1 
  332   357     1 
  333   335     1 
  333   352     1 
  333   353     1 
  333   356     1 
  334   338     1 
  334   349     1 
  334   352     1 
  334   354     1 
  334   355     1 
  334   356     1 
  335   339     1 
  335   340     1 
  335   347     1 
  335   350     1 
  335   352     1 
  335   356     1 
  336   338     1 
  336   349     1 
  336   351     1 
  336   354     1 
  336   355     1 
  337   341     1 
  337   345     1 
  337   348     1 
  337   351     1 
  337   354     1 
  337   355     1 
  338   342     1 
  338   343     1 
  338   344     1 
  338   346     1 
  338   347     1 
  338   350     1 
  338   353     1 
  339   341     1 
  339   345     1 
  339   349     1 
  340   348     1 
  340   349     1 
  341   346     1 
  341   347     1 
  342   345     1 
  343   345     1 
  344   345     1 
  345   350     1 
  346   348     1 
  346   349     1 
  348   350     1 
  349   353     1 
  351   358     1 
  351   359     1 
  351   360     1 
  352   354     1 
  352   355     1 
  352   357     1 
  353   357     1 
  354   356     1 
  355   356     1 
  356   361     1 
  357   362     1 
  357   363     1 
  357   364     1 
  358   361     1 
  359   361     1 
  360   365     1 
  360   366     1 
  360   383     1 
  361   367     1 
  361   384     1 
  361   385     1 
  361   388     1 
  362   365     1 
  362   366     1 
  362   383     1 
  363   365     1 
  363   366     1 
  363   383     1 
  364   368     1 
  364   369     1 
  364   386     1 
  364   387     1 
  364   389     1 
  365   367     1 
  365   384     1 
  365   385     1 
  365   388     1 
  366   370     1 
  366   381     1 
  366   384     1 
  366   386     1 
  366   387     1 
  366   388     1 
  367   371     1 
  367   372     1 
  367   379     1 
  367   382     1 
  367   384     1 
  367   388     1 
  368   370     1 
  368   381     1 
  368   383     1 
  368   386     1 
  368   387     1 
  369   373     1 
  369   377     1 
  369   380     1 
  369   383     1 
  369   386     1 
  369   387     1 
  370   374     1 
  370   375     1 
  370   376     1 
  370   378     1 
  370   379     1 
  370   382     1 
  370   385     1 
  371   373     1 
  371   377     1 
  371   381     1 
  372   380     1 
  372   381     1 
  373   378     1 
  373   379     1 
  374   377     1 
  375   377     1 
  376   377     1 
  377   382     1 
  378   380     1 
  378   381     1 
  380   382     1 
  381   385     1 
  383   390     1 
  383   391     1 
  383   392     1 
  384   386     1 
  384   387     1 
  384   389     1 
  385   389     1 
  386   388     1 
  387   388     1 
  388   393     1 
  389   394     1 
  389   395     1 
  389   396     1 
  390   393     1 
  391   393     1 
  392   397     1 
  392   398     1 
  392   413     1 
  393   399     1 
  393   414     1 
  393   415     1 
  393   418     1 
  394   397     1 
  394   398     1 
  394   413     1 
  395   397     1 
  395   398     1 
  395   413     1 
  396   400     1 
  396   401     1 
  396   416     1 
  396   417     1 
  396   419     1 
  397   399     1 
  397   414     1 
  397   415     1 
  397   418     1 
  398   402     1 
  398   411     1 
  398   414     1 
  398   416     1 
  398   417     1 
  398   418     1 
  399   403     1 
  399   404     1 
  399   410     1 
  399   412     1 
  399   414     1 
  399   418     1 
  400   402     1 
  400   411     1 
  400   413     1 
  400   416     1 
  400   417     1 
  401   405     1 
  401   406     1 
  401   413     1 
  401   416     1 
  401   417     1 
  402   407     1 
  402   410     1 
  402   412     1 
  402   415     1 
  403   405     1 
  403   406     1 
  403   411     1 
  404   408     1 
  404   409     1 
  404   411     1 
  405   407     1 
  405   410     1 
  406   412     1 
  407   411     1 
  408   410     1 
  409   410     1 
  411   415     1 
  413   420     1 
  413   421     1 
  413   422     1 
  414   416     1 
  414   417     1 
  414   419     1 
  415   419     1 
  416   418     1 
  417   418     1 
  418   423     1 
  419   424     1 
  419   425     1 
  419   426     1 
  420   423     1 
  421   423     1 
  422   427     1 
  422   428     1 
  422   445     1 
  423   429     1 
  423   446     1 
  423   447     1 
  423   450     1 
  424   427     1 
  424   428     1 
  424   445     1 
  425   427     1 
  425   428     1 
  425   445     1 
  426   430     1 
  426   431     1 
  426   448     1 
  426   449     1 
  426   451     1 
  427   429     1 
  427   446     1 
  427   447     1 
  427   450     1 
  428   432     1 
  428   444     1 
  428   446     1 
  428   448     1 
  428   449     1 
  428   450     1 
  429   433     1 
  429   434     1 
  429   435     1 
  429   443     1 
  429   446     1 
  429   450     1 
  430   432     1 
  430   444     1 
  430   445     1 
  430   448     1 
  430   449     1 
  431   436     1 
  431   441     1 
  431   445     1 
  431   448     1 
  431   449     1 
  432   436     1 
  432   443     1 
  432   447     1 
  433   435     1 
  433   444     1 
  434   437     1 
  434   440     1 
  434   443     1 
  435   438     1 
  435   439     1 
  435   441     1 
  436   442     1 
  436   443     1 
  437   441     1 
  437   444     1 
  438   440     1 
  439   440     1 
  440   444     1 
  442   444     1 
  444   447     1 
  445   452     1 
  445   453     1 
  445   454     1 
  446   448     1 
  446   449     1 
  446   451     1 
  447   451     1 
  448   450     1 
  449   450     1 
  450   455     1 
  451   456     1 
  451   457     1 
  451   458     1 
  452   455     1 
  453   455     1 
  454   459     1 
  454   460     1 
  454   478     1 
  455   461     1 
  455   479     1 
  455   480     1 
  455   483     1 
  456   459     1 
  456   460     1 
  456   478     1 
  457   459     1 
  457   460     1 
  457   478     1 
  458   462     1 
  458   463     1 
  458   481     1 
  458   482     1 
  458   484     1 
  459   461     1 
  459   479     1 
  459   480     1 
  459   483     1 
  460   464     1 
  460   477     1 
  460   479     1 
  460   481     1 
  460   482     1 
  460   483     1 
  461   465     1 
  461   466     1 
  461   467     1 
  461   476     1 
  461   479     1 
  461   483     1 
  462   464     1 
  462   477     1 
  462   478     1 
  462   481     1 
  462   482     1 
  463   468     1 
  463   472     1 
  463   478     1 
  463   481     1 
  463   482     1 
  464   468     1 
  464   476     1 
  464   480     1 
  465   467     1 
  465   477     1 
  466   469     1 
  466   470     1 
  466   476     1 
  467   471     1 
  467   472     1 
  468   473     1 
  468   476     1 
  469   471     1 
  469   472     1 
  469   477     1 
  470   474     1 
  470   475     1 
  470   477     1 
  471   473     1 
  471   476     1 
  473   477     1 
  474   476     1 
  475   476     1 
  477   480     1 
  479   481     1 
  479   482     1 
  479   484     1 
  480   484     1 
  481   483     1 
  482   483     1 

[ angles ]
;  ai    aj    ak funct            c0            c1            c2            c3
    2     1     3     1 
    1     3     4     1 
    1     3     5     1 
    1     3     6     1 
    4     3     5     1 
    4     3     6     1 
    5     3     6     1 
    3     6     7     1 
    3     6     8     1 
    3     6    26     1 
    7     6     8     1 
    7     6    26     1 
    8     6    26     1 
    6     8     9     1 
    8     9    10     1 
    8     9    11     1 
    8     9    28     1 
   10     9    11     1 
   10     9    28     1 
   11     9    28     1 
    9    11    12     1 
    9    11    25     1 
   12    11    25     1 
   11    12    13     1 
   11    12    14     1 
   13    12    14     1 
   12    14    15     1 
   14    15    16     1 
   14    15    25     1 
   16    15    25     1 
   15    16    17     1 
   15    16    18     1 
   17    16    18     1 
   16    18    19     1 
   16    18    20     1 
   19    18    20     1 
   18    20    21     1 
   18    20    24     1 
   21    20    24     1 
   20    21    22     1 
   20    21    23     1 
   22    21    23     1 
   20    24    25     1 
   11    25    15     1 
   11    25    24     1 
   15    25    24     1 
    6    26    27     1 
    6    26    28     1 
    6    26    31     1 
   27    26    28     1 
   27    26    31     1 
   28    26    31     1 
    9    28    26     1 
    9    28    29     1 
    9    28    30     1 
   26    28    29     1 
   26    28    30     1 
   29    28    30     1 
   26    31    32     1 
   31    32    33     1 
   31    32    34     1 
   31    32    35     1 
   33    32    34     1 
   33    32    35     1 
   34    32    35     1 
   32    35    36     1 
   35    36    37     1 
   35    36    38     1 
   35    36    39     1 
   37    36    38     1 
   37    36    39     1 
   38    36    39     1 
   36    39    40     1 
   36    39    41     1 
   36    39    59     1 
   40    39    41     1 
   40    39    59     1 
   41    39    59     1 
   39    41    42     1 
   41    42    43     1 
   41    42    44     1 
   41    42    61     1 
   43    42    44     1 
   43    42    61     1 
   44    42    61     1 
   42    44    45     1 
   42    44    58     1 
   45    44    58     1 
   44    45    46     1 
   44    45    47     1 
   46    45    47     1 
   45    47    48     1 
   47    48    49     1 
   47    48    58     1 
   49    48    58     1 
   48    49    50     1 
   48    49    51     1 
   50    49    51     1 
   49    51    52     1 
   49    51    53     1 
   52    51    53     1 
   51    53    54     1 
   51    53    57     1 
   54    53    57     1 
   53    54    55     1 
   53    54    56     1 
   55    54    56     1 
   53    57    58     1 
   44    58    48     1 
   44    58    57     1 
   48    58    57     1 
   39    59    60     1 
   39    59    61     1 
   39    59    64     1 
   60    59    61     1 
   60    59    64     1 
   61    59    64     1 
   42    61    59     1 
   42    61    62     1 
   42    61    63     1 
   59    61    62     1 
   59    61    63     1 
   62    61    63     1 
   59    64    65     1 
   64    65    66     1 
   64    65    67     1 
   64    65    68     1 
   66    65    67     1 
   66    65    68     1 
   67    65    68     1 
   65    68    69     1 
   68    69    70     1 
   68    69    71     1 
   68    69    72     1 
   70    69    71     1 
   70    69    72     1 
   71    69    72     1 
   69    72    73     1 
   69    72    74     1 
   69    72    92     1 
   73    72    74     1 
   73    72    92     1 
   74    72    92     1 
   72    74    75     1 
   74    75    76     1 
   74    75    77     1 
   74    75    94     1 
   76    75    77     1 
   76    75    94     1 
   77    75    94     1 
   75    77    78     1 
   75    77    91     1 
   78    77    91     1 
   77    78    79     1 
   77    78    80     1 
   79    78    80     1 
   78    80    81     1 
   80    81    82     1 
   80    81    91     1 
   82    81    91     1 
   81    82    83     1 
   81    82    84     1 
   83    82    84     1 
   82    84    85     1 
   82    84    86     1 
   85    84    86     1 
   84    86    87     1 
   84    86    90     1 
   87    86    90     1 
   86    87    88     1 
   86    87    89     1 
   88    87    89     1 
   86    90    91     1 
   77    91    81     1 
   77    91    90     1 
   81    91    90     1 
   72    92    93     1 
   72    92    94     1 
   72    92    97     1 
   93    92    94     1 
   93    92    97     1 
   94    92    97     1 
   75    94    92     1 
   75    94    95     1 
   75    94    96     1 
   92    94    95     1 
   92    94    96     1 
   95    94    96     1 
   92    97    98     1 
   97    98    99     1 
   97    98   100     1 
   97    98   101     1 
   99    98   100     1 
   99    98   101     1 
  100    98   101     1 
   98   101   102     1 
  101   102   103     1 
  101   102   104     1 
  101   102   105     1 
  103   102   104     1 
  103   102   105     1 
  104   102   105     1 
  102   105   106     1 
  102   105   107     1 
  102   105   125     1 
  106   105   107     1 
  106   105   125     1 
  107   105   125     1 
  105   107   108     1 
  107   108   109     1 
  107   108   110     1 
  107   108   127     1 
  109   108   110     1 
  109   108   127     1 
  110   108   127     1 
  108   110   111     1 
  108   110   124     1 
  111   110   124     1 
  110   111   112     1 
  110   111   113     1 
  112   111   113     1 
  111   113   114     1 
  113   114   115     1 
  113   114   124     1 
  115   114   124     1 
  114   115   116     1 
  114   115   117     1 
  116   115   117     1 
  115   117   118     1 
  115   117   119     1 
  118   117   119     1 
  117   119   120     1 
  117   119   123     1 
  120   119   123     1 
  119   120   121     1 
  119   120   122     1 
  121   120   122     1 
  119   123   124     1 
  110   124   114     1 
  110   124   123     1 
  114   124   123     1 
  105   125   126     1 
  105   125   127     1 
  105   125   130     1 
  126   125   127     1 
  126   125   130     1 
  127   125   130     1 
  108   127   125     1 
  108   127   128     1 
  108   127   129     1 
  125   127   128     1 
  125   127   129     1 
  128   127   129     1 
  125   130   131     1 
  130   131   132     1 
  130   131   133     1 
  130   131   134     1 
  132   131   133     1 
  132   131   134     1 
  133   131   134     1 
  131   134   135     1 
  134   135   136     1 
  134   135   137     1 
  134   135   138     1 
  136   135   137     1 
  136   135   138     1 
  137   135   138     1 
  135   138   139     1 
  135   138   140     1 
  135   138   157     1 
  139   138   140     1 
  139   138   157     1 
  140   138   157     1 
  138   140   141     1 
  140   141   142     1 
  140   141   143     1 
  140   141   159     1 
  142   141   143     1 
  142   141   159     1 
  143   141   159     1 
  141   143   144     1 
  141   143   155     1 
  144   143   155     1 
  143   144   145     1 
  143   144   146     1 
  145   144   146     1 
  144   146   147     1 
  144   146   151     1 
  147   146   151     1 
  146   147   148     1 
  146   147   149     1 
  146   147   150     1 
  148   147   149     1 
  148   147   150     1 
  149   147   150     1 
  146   151   152     1 
  146   151   153     1 
  152   151   153     1 
  151   153   154     1 
  151   153   155     1 
  154   153   155     1 
  143   155   153     1 
  143   155   156     1 
  153   155   156     1 
  138   157   158     1 
  138   157   159     1 
  138   157   162     1 
  158   157   159     1 
  158   157   162     1 
  159   157   162     1 
  141   159   157     1 
  141   159   160     1 
  141   159   161     1 
  157   159   160     1 
  157   159   161     1 
  160   159   161     1 
  157   162   163     1 
  162   163   164     1 
  162   163   165     1 
  162   163   166     1 
  164   163   165     1 
  164   163   166     1 
  165   163   166     1 
  163   166   167     1 
  166   167   168     1 
  166   167   169     1 
  166   167   170     1 
  168   167   169     1 
  168   167   170     1 
  169   167   170     1 
  167   170   171     1 
  167   170   172     1 
  167   170   190     1 
  171   170   172     1 
  171   170   190     1 
  172   170   190     1 
  170   172   173     1 
  172   173   174     1 
  172   173   175     1 
  172   173   192     1 
  174   173   175     1 
  174   173   192     1 
  175   173   192     1 
  173   175   176     1 
  173   175   189     1 
  176   175   189     1 
  175   176   177     1 
  175   176   178     1 
  177   176   178     1 
  176   178   179     1 
  178   179   180     1 
  178   179   189     1 
  180   179   189     1 
  179   180   181     1 
  179   180   182     1 
  181   180   182     1 
  180   182   183     1 
  180   182   184     1 
  183   182   184     1 
  182   184   185     1 
  182   184   188     1 
  185   184   188     1 
  184   185   186     1 
  184   185   187     1 
  186   185   187     1 
  184   188   189     1 
  175   189   179     1 
  175   189   188     1 
  179   189   188     1 
  170   190   191     1 
  170   190   192     1 
  170   190   195     1 
  191   190   192     1 
  191   190   195     1 
  192   190   195     1 
  173   192   190     1 
  173   192   193     1 
  173   192   194     1 
  190   192   193     1 
  190   192   194     1 
  193   192   194     1 
  190   195   196     1 
  195   196   197     1 
  195   196   198     1 
  195   196   199     1 
  197   196   198     1 
  197   196   199     1 
  198   196   199     1 
  196   199   200     1 
  199   200   201     1 
  199   200   202     1 
  199   200   203     1 
  201   200   202     1 
  201   200   203     1 
  202   200   203     1 
  200   203   204     1 
  200   203   205     1 
  200   203   222     1 
  204   203   205     1 
  204   203   222     1 
  205   203   222     1 
  203   205   206     1 
  205   206   207     1 
  205   206   208     1 
  205   206   224     1 
  207   206   208     1 
  207   206   224     1 
  208   206   224     1 
  206   208   209     1 
  206   208   221     1 
  209   208   221     1 
  208   209   210     1 
  208   209   211     1 
  210   209   211     1 
  209   211   212     1 
  211   212   213     1 
  211   212   221     1 
  213   212   221     1 
  212   213   214     1 
  212   213   217     1 
  214   213   217     1 
  213   214   215     1 
  213   214   216     1 
  215   214   216     1 
  213   217   218     1 
  217   218   219     1 
  217   218   220     1 
  219   218   220     1 
  218   220   221     1 
  208   221   212     1 
  208   221   220     1 
  212   221   220     1 
  203   222   223     1 
  203   222   224     1 
  203   222   227     1 
  223   222   224     1 
  223   222   227     1 
  224   222   227     1 
  206   224   222     1 
  206   224   225     1 
  206   224   226     1 
  222   224   225     1 
  222   224   226     1 
  225   224   226     1 
  222   227   228     1 
  227   228   229     1 
  227   228   230     1 
  227   228   231     1 
  229   228   230     1 
  229   228   231     1 
  230   228   231     1 
  228   231   232     1 
  231   232   233     1 
  231   232   234     1 
  231   232   235     1 
  233   232   234     1 
  233   232   235     1 
  234   232   235     1 
  232   235   236     1 
  232   235   237     1 
  232   235   254     1 
  236   235   237     1 
  236   235   254     1 
  237   235   254     1 
  235   237   238     1 
  237   238   239     1 
  237   238   240     1 
  237   238   256     1 
  239   238   240     1 
  239   238   256     1 
  240   238   256     1 
  238   240   241     1 
  238   240   252     1 
  241   240   252     1 
  240   241   242     1 
  240   241   243     1 
  242   241   243     1 
  241   243   244     1 
  241   243   248     1 
  244   243   248     1 
  243   244   245     1 
  243   244   246     1 
  243   244   247     1 
  245   244   246     1 
  245   244   247     1 
  246   244   247     1 
  243   248   249     1 
  243   248   250     1 
  249   248   250     1 
  248   250   251     1 
  248   250   252     1 
  251   250   252     1 
  240   252   250     1 
  240   252   253     1 
  250   252   253     1 
  235   254   255     1 
  235   254   256     1 
  235   254   259     1 
  255   254   256     1 
  255   254   259     1 
  256   254   259     1 
  238   256   254     1 
  238   256   257     1 
  238   256   258     1 
  254   256   257     1 
  254   256   258     1 
  257   256   258     1 
  254   259   260     1 
  259   260   261     1 
  259   260   262     1 
  259   260   263     1 
  261   260   262     1 
  261   260   263     1 
  262   260   263     1 
  260   263   264     1 
  263   264   265     1 
  263   264   266     1 
  263   264   267     1 
  265   264   266     1 
  265   264   267     1 
  266   264   267     1 
  264   267   268     1 
  264   267   269     1 
  264   267   286     1 
  268   267   269     1 
  268   267   286     1 
  269   267   286     1 
  267   269   270     1 
  269   270   271     1 
  269   270   272     1 
  269   270   288     1 
  271   270   272     1 
  271   270   288     1 
  272   270   288     1 
  270   272   273     1 
  270   272   284     1 
  273   272   284     1 
  272   273   274     1 
  272   273   275     1 
  274   273   275     1 
  273   275   276     1 
  273   275   280     1 
  276   275   280     1 
  275   276   277     1 
  275   276   278     1 
  275   276   279     1 
  277   276   278     1 
  277   276   279     1 
  278   276   279     1 
  275   280   281     1 
  275   280   282     1 
  281   280   282     1 
  280   282   283     1 
  280   282   284     1 
  283   282   284     1 
  272   284   282     1 
  272   284   285     1 
  282   284   285     1 
  267   286   287     1 
  267   286   288     1 
  267   286   291     1 
  287   286   288     1 
  287   286   291     1 
  288   286   291     1 
  270   288   286     1 
  270   288   289     1 
  270   288   290     1 
  286   288   289     1 
  286   288   290     1 
  289   288   290     1 
  286   291   292     1 
  291   292   293     1 
  291   292   294     1 
  291   292   295     1 
  293   292   294     1 
  293   292   295     1 
  294   292   295     1 
  292   295   296     1 
  295   296   297     1 
  295   296   298     1 
  295   296   299     1 
  297   296   298     1 
  297   296   299     1 
  298   296   299     1 
  296   299   300     1 
  296   299   301     1 
  296   299   319     1 
  300   299   301     1 
  300   299   319     1 
  301   299   319     1 
  299   301   302     1 
  301   302   303     1 
  301   302   304     1 
  301   302   321     1 
  303   302   304     1 
  303   302   321     1 
  304   302   321     1 
  302   304   305     1 
  302   304   318     1 
  305   304   318     1 
  304   305   306     1 
  304   305   307     1 
  306   305   307     1 
  305   307   308     1 
  307   308   309     1 
  307   308   318     1 
  309   308   318     1 
  308   309   310     1 
  308   309   311     1 
  310   309   311     1 
  309   311   312     1 
  309   311   313     1 
  312   311   313     1 
  311   313   314     1 
  311   313   317     1 
  314   313   317     1 
  313   314   315     1 
  313   314   316     1 
  315   314   316     1 
  313   317   318     1 
  304   318   308     1 
  304   318   317     1 
  308   318   317     1 
  299   319   320     1 
  299   319   321     1 
  299   319   324     1 
  320   319   321     1 
  320   319   324     1 
  321   319   324     1 
  302   321   319     1 
  302   321   322     1 
  302   321   323     1 
  319   321   322     1 
  319   321   323     1 
  322   321   323     1 
  319   324   325     1 
  324   325   326     1 
  324   325   327     1 
  324   325   328     1 
  326   325   327     1 
  326   325   328     1 
  327   325   328     1 
  325   328   329     1 
  328   329   330     1 
  328   329   331     1 
  328   329   332     1 
  330   329   331     1 
  330   329   332     1 
  331   329   332     1 
  329   332   333     1 
  329   332   334     1 
  329   332   351     1 
  333   332   334     1 
  333   332   351     1 
  334   332   351     1 
  332   334   335     1 
  334   335   336     1 
  334   335   337     1 
  334   335   353     1 
  336   335   337     1 
  336   335   353     1 
  337   335   353     1 
  335   337   338     1 
  335   337   349     1 
  338   337   349     1 
  337   338   339     1 
  337   338   340     1 
  339   338   340     1 
  338   340   341     1 
  338   340   345     1 
  341   340   345     1 
  340   341   342     1 
  340   341   343     1 
  340   341   344     1 
  342   341   343     1 
  342   341   344     1 
  343   341   344     1 
  340   345   346     1 
  340   345   347     1 
  346   345   347     1 
  345   347   348     1 
  345   347   349     1 
  348   347   349     1 
  337   349   347     1 
  337   349   350     1 
  347   349   350     1 
  332   351   352     1 
  332   351   353     1 
  332   351   356     1 
  352   351   353     1 
  352   351   356     1 
  353   351   356     1 
  335   353   351     1 
  335   353   354     1 
  335   353   355     1 
  351   353   354     1 
  351   353   355     1 
  354   353   355     1 
  351   356   357     1 
  356   357   358     1 
  356   357   359     1 
  356   357   360     1 
  358   357   359     1 
  358   357   360     1 
  359   357   360     1 
  357   360   361     1 
  360   361   362     1 
  360   361   363     1 
  360   361   364     1 
  362   361   363     1 
  362   361   364     1 
  363   361   364     1 
  361   364   365     1 
  361   364   366     1 
  361   364   383     1 
  365   364   366     1 
  365   364   383     1 
  366   364   383     1 
  364   366   367     1 
  366   367   368     1 
  366   367   369     1 
  366   367   385     1 
  368   367   369     1 
  368   367   385     1 
  369   367   385     1 
  367   369   370     1 
  367   369   381     1 
  370   369   381     1 
  369   370   371     1 
  369   370   372     1 
  371   370   372     1 
  370   372   373     1 
  370   372   377     1 
  373   372   377     1 
  372   373   374     1 
  372   373   375     1 
  372   373   376     1 
  374   373   375     1 
  374   373   376     1 
  375   373   376     1 
  372   377   378     1 
  372   377   379     1 
  378   377   379     1 
  377   379   380     1 
  377   379   381     1 
  380   379   381     1 
  369   381   379     1 
  369   381   382     1 
  379   381   382     1 
  364   383   384     1 
  364   383   385     1 
  364   383   388     1 
  384   383   385     1 
  384   383   388     1 
  385   383   388     1 
  367   385   383     1 
  367   385   386     1 
  367   385   387     1 
  383   385   386     1 
  383   385   387     1 
  386   385   387     1 
  383   388   389     1 
  388   389   390     1 
  388   389   391     1 
  388   389   392     1 
  390   389   391     1 
  390   389   392     1 
  391   389   392     1 
  389   392   393     1 
  392   393   394     1 
  392   393   395     1 
  392   393   396     1 
  394   393   395     1 
  394   393   396     1 
  395   393   396     1 
  393   396   397     1 
  393   396   398     1 
  393   396   413     1 
  397   396   398     1 
  397   396   413     1 
  398   396   413     1 
  396   398   399     1 
  398   399   400     1 
  398   399   401     1 
  398   399   415     1 
  400   399   401     1 
  400   399   415     1 
  401   399   415     1 
  399   401   402     1 
  399   401   411     1 
  402   401   411     1 
  401   402   403     1 
  401   402   404     1 
  403   402   404     1 
  402   404   405     1 
  402   404   406     1 
  405   404   406     1 
  404   406   407     1 
  404   406   410     1 
  407   406   410     1 
  406   407   408     1 
  406   407   409     1 
  408   407   409     1 
  406   410   411     1 
  401   411   410     1 
  401   411   412     1 
  410   411   412     1 
  396   413   414     1 
  396   413   415     1 
  396   413   418     1 
  414   413   415     1 
  414   413   418     1 
  415   413   418     1 
  399   415   413     1 
  399   415   416     1 
  399   415   417     1 
  413   415   416     1 
  413   415   417     1 
  416   415   417     1 
  413   418   419     1 
  418   419   420     1 
  418   419   421     1 
  418   419   422     1 
  420   419   421     1 
  420   419   422     1 
  421   419   422     1 
  419   422   423     1 
  422   423   424     1 
  422   423   425     1 
  422   423   426     1 
  424   423   425     1 
  424   423   426     1 
  425   423   426     1 
  423   426   427     1 
  423   426   428     1 
  423   426   445     1 
  427   426   428     1 
  427   426   445     1 
  428   426   445     1 
  426   428   429     1 
  428   429   430     1 
  428   429   431     1 
  428   429   447     1 
  430   429   431     1 
  430   429   447     1 
  431   429   447     1 
  429   431   432     1 
  429   431   444     1 
  432   431   444     1 
  431   432   433     1 
  431   432   434     1 
  433   432   434     1 
  432   434   435     1 
  434   435   436     1 
  434   435   444     1 
  436   435   444     1 
  435   436   437     1 
  435   436   440     1 
  437   436   440     1 
  436   437   438     1 
  436   437   439     1 
  438   437   439     1 
  436   440   441     1 
  440   441   442     1 
  440   441   443     1 
  442   441   443     1 
  441   443   444     1 
  431   444   435     1 
  431   444   443     1 
  435   444   443     1 
  426   445   446     1 
  426   445   447     1 
  426   445   450     1 
  446   445   447     1 
  446   445   450     1 
  447   445   450     1 
  429   447   445     1 
  429   447   448     1 
  429   447   449     1 
  445   447   448     1 
  445   447   449     1 
  448   447   449     1 
  445   450   451     1 
  450   451   452     1 
  450   451   453     1 
  450   451   454     1 
  452   451   453     1 
  452   451   454     1 
  453   451   454     1 
  451   454   455     1 
  454   455   456     1 
  454   455   457     1 
  454   455   458     1 
  456   455   457     1 
  456   455   458     1 
  457   455   458     1 
  455   458   459     1 
  455   458   460     1 
  455   458   478     1 
  459   458   460     1 
  459   458   478     1 
  460   458   478     1 
  458   460   461     1 
  460   461   462     1 
  460   461   463     1 
  460   461   480     1 
  462   461   463     1 
  462   461   480     1 
  463   461   480     1 
  461   463   464     1 
  461   463   477     1 
  464   463   477     1 
  463   464   465     1 
  463   464   466     1 
  465   464   466     1 
  464   466   467     1 
  466   467   468     1 
  466   467   477     1 
  468   467   477     1 
  467   468   469     1 
  467   468   470     1 
  469   468   470     1 
  468   470   471     1 
  468   470   472     1 
  471   470   472     1 
  470   472   473     1 
  470   472   476     1 
  473   472   476     1 
  472   473   474     1 
  472   473   475     1 
  474   473   475     1 
  472   476   477     1 
  463   477   467     1 
  463   477   476     1 
  467   477   476     1 
  458   478   479     1 
  458   478   480     1 
  458   478   483     1 
  479   478   480     1 
  479   478   483     1 
  480   478   483     1 
  461   480   478     1 
  461   480   481     1 
  461   480   482     1 
  478   480   481     1 
  478   480   482     1 
  481   480   482     1 
  478   483   484     1 

[ dihedrals ]
;  ai    aj    ak    al funct            c0            c1            c2            c3            c4            c5
    2     1     3     4     9 
    2     1     3     5     9 
    2     1     3     6     9 
    1     3     6     7     9 
    1     3     6     8     9 
    1     3     6    26     9 
    4     3     6     7     9 
    4     3     6     8     9 
    4     3     6    26     9 
    5     3     6     7     9 
    5     3     6     8     9 
    5     3     6    26     9 
    3     6     8     9     9 
    7     6     8     9     9 
   26     6     8     9     9 
    3     6    26    27     9 
    3     6    26    28     9 
    3     6    26    31     9 
    7     6    26    27     9 
    7     6    26    28     9 
    7     6    26    31     9 
    8     6    26    27     9 
    8     6    26    28     9 
    8     6    26    31     9 
    6     8     9    10     9 
    6     8     9    11     9 
    6     8     9    28     9 
    8     9    11    12     9 
    8     9    11    25     9 
   10     9    11    12     9 
   10     9    11    25     9 
   28     9    11    12     9 
   28     9    11    25     9 
    8     9    28    26     9 
    8     9    28    29     9 
    8     9    28    30     9 
   10     9    28    26     9 
   10     9    28    29     9 
   10     9    28    30     9 
   11     9    28    26     9 
   11     9    28    29     9 
   11     9    28    30     9 
    9    11    12    13     9 
    9    11    12    14     9 
   25    11    12    13     9 
   25    11    12    14     9 
    9    11    25    15     9 
    9    11    25    24     9 
   12    11    25    15     9 
   12    11    25    24     9 
   11    12    14    15     9 
   13    12    14    15     9 
   12    14    15    16     9 
   12    14    15    25     9 
   14    15    16    17     9 
   14    15    16    18     9 
   25    15    16    17     9 
   25    15    16    18     9 
   14    15    25    11     9 
   14    15    25    24     9 
   16    15    25    11     9 
   16    15    25    24     9 
   15    16    18    19     9 
   15    16    18    20     9 
   17    16    18    19     9 
   17    16    18    20     9 
   16    18    20    21     9 
   16    18    20    24     9 
   19    18    20    21     9 
   19    18    20    24     9 
   18    20    21    22     9 
   18    20    21    23     9 
   24    20    21    22     9 
   24    20    21    23     9 
   18    20    24    25     9 
   21    20    24    25     9 
   20    24    25    11     9 
   20    24    25    15     9 
    6    26    28     9     9 
    6    26    28    29     9 
    6    26    28    30     9 
   27    26    28     9     9 
   27    26    28    29     9 
   27    26    28    30     9 
   31    26    28     9     9 
   31    26    28    29     9 
   31    26    28    30     9 
    6    26    31    32     9 
   27    26    31    32     9 
   28    26    31    32     9 
   26    31    32    33     9 
   26    31    32    34     9 
   26    31    32    35     9 
   31    32    35    36     9 
   33    32    35    36     9 
   34    32    35    36     9 
   32    35    36    37     9 
   32    35    36    38     9 
   32    35    36    39     9 
   35    36    39    40     9 
   35    36    39    41     9 
   35    36    39    59     9 
   37    36    39    40     9 
   37    36    39    41     9 
   37    36    39    59     9 
   38    36    39    40     9 
   38    36    39    41     9 
   38    36    39    59     9 
   36    39    41    42     9 
   40    39    41    42     9 
   59    39    41    42     9 
   36    39    59    60     9 
   36    39    59    61     9 
   36    39    59    64     9 
   40    39    59    60     9 
   40    39    59    61     9 
   40    39    59    64     9 
   41    39    59    60     9 
   41    39    59    61     9 
   41    39    59    64     9 
   39    41    42    43     9 
   39    41    42    44     9 
   39    41    42    61     9 
   41    42    44    45     9 
   41    42    44    58     9 
   43    42    44    45     9 
   43    42    44    58     9 
   61    42    44    45     9 
   61    42    44    58     9 
   41    42    61    59     9 
   41    42    61    62     9 
   41    42    61    63     9 
   43    42    61    59     9 
   43    42    61    62     9 
   43    42    61    63     9 
   44    42    61    59     9 
   44    42    61    62     9 
   44    42    61    63     9 
   42    44    45    46     9 
   42    44    45    47     9 
   58    44    45    46     9 
   58    44    45    47     9 
   42    44    58    48     9 
   42    44    58    57     9 
   45    44    58    48     9 
   45    44    58    57     9 
   44    45    47    48     9 
   46    45    47    48     9 
   45    47    48    49     9 
   45    47    48    58     9 
   47    48    49    50     9 
   47    48    49    51     9 
   58    48    49    50     9 
   58    48    49    51     9 
   47    48    58    44     9 
   47    48    58    57     9 
   49    48    58    44     9 
   49    48    58    57     9 
   48    49    51    52     9 
   48    49    51    53     9 
   50    49    51    52     9 
   50    49    51    53     9 
   49    51    53    54     9 
   49    51    53    57     9 
   52    51    53    54     9 
   52    51    53    57     9 
   51    53    54    55     9 
   51    53    54    56     9 
   57    53    54    55     9 
   57    53    54    56     9 
   51    53    57    58     9 
   54    53    57    58     9 
   53    57    58    44     9 
   53    57    58    48     9 
   39    59    61    42     9 
   39    59    61    62     9 
   39    59    61    63     9 
   60    59    61    42     9 
   60    59    61    62     9 
   60    59    61    63     9 
   64    59    61    42     9 
   64    59    61    62     9 
   64    59    61    63     9 
   39    59    64    65     9 
   60    59    64    65     9 
   61    59    64    65     9 
   59    64    65    66     9 
   59    64    65    67     9 
   59    64    65    68     9 
   64    65    68    69     9 
   66    65    68    69     9 
   67    65    68    69     9 
   65    68    69    70     9 
   65    68    69    71     9 
   65    68    69    72     9 
   68    69    72    73     9 
   68    69    72    74     9 
   68    69    72    92     9 
   70    69    72    73     9 
   70    69    72    74     9 
   70    69    72    92     9 
   71    69    72    73     9 
   71    69    72    74     9 
   71    69    72    92     9 
   69    72    74    75     9 
   73    72    74    75     9 
   92    72    74    75     9 
   69    72    92    93     9 
   69    72    92    94     9 
   69    72    92    97     9 
   73    72    92    93     9 
   73    72    92    94     9 
   73    72    92    97     9 
   74    72    92    93     9 
   74    72    92    94     9 
   74    72    92    97     9 
   72    74    75    76     9 
   72    74    75    77     9 
   72    74    75    94     9 
   74    75    77    78     9 
   74    75    77    91     9 
   76    75    77    78     9 
   76    75    77    91     9 
   94    75    77    78     9 
   94    75    77    91     9 
   74    75    94    92     9 
   74    75    94    95     9 
   74    75    94    96     9 
   76    75    94    92     9 
   76    75    94    95     9 
   76    75    94    96     9 
   77    75    94    92     9 
   77    75    94    95     9 
   77    75    94    96     9 
   75    77    78    79     9 
   75    77    78    80     9 
   91    77    78    79     9 
   91    77    78    80     9 
   75    77    91    81     9 
   75    77    91    90     9 
   78    77    91    81     9 
   78    77    91    90     9 
   77    78    80    81     9 
   79    78    80    81     9 
   78    80    81    82     9 
   78    80    81    91     9 
   80    81    82    83     9 
   80    81    82    84     9 
   91    81    82    83     9 
   91    81    82    84     9 
   80    81    91    77     9 
   80    81    91    90     9 
   82    81    91    77     9 
   82    81    91    90     9 
   81    82    84    85     9 
   81    82    84    86     9 
   83    82    84    85     9 
   83    82    84    86     9 
   82    84    86    87     9 
   82    84    86    90     9 
   85    84    86    87     9 
   85    84    86    90     9 
   84    86    87    88     9 
   84    86    87    89     9 
   90    86    87    88     9 
   90    86    87    89     9 
   84    86    90    91     9 
   87    86    90    91     9 
   86    90    91    77     9 
   86    90    91    81     9 
   72    92    94    75     9 
   72    92    94    95     9 
   72    92    94    96     9 
   93    92    94    75     9 
   93    92    94    95     9 
   93    92    94    96     9 
   97    92    94    75     9 
   97    92    94    95     9 
   97    92    94    96     9 
   72    92    97    98     9 
   93    92    97    98     9 
   94    92    97    98     9 
   92    97    98    99     9 
   92    97    98   100     9 
   92    97    98   101     9 
   97    98   101   102     9 
   99    98   101   102     9 
  100    98   101   102     9 
   98   101   102   103     9 
   98   101   102   104     9 
   98   101   102   105     9 
  101   102   105   106     9 
  101   102   105   107     9 
  101   102   105   125     9 
  103   102   105   106     9 
  103   102   105   107     9 
  103   102   105   125     9 
  104   102   105   106     9 
  104   102   105   107     9 
  104   102   105   125     9 
  102   105   107   108     9 
  106   105   107   108     9 
  125   105   107   108     9 
  102   105   125   126     9 
  102   105   125   127     9 
  102   105   125   130     9 
  106   105   125   126     9 
  106   105   125   127     9 
  106   105   125   130     9 
  107   105   125   126     9 
  107   105   125   127     9 
  107   105   125   130     9 
  105   107   108   109     9 
  105   107   108   110     9 
  105   107   108   127     9 
  107   108   110   111     9 
  107   108   110   124     9 
  109   108   110   111     9 
  109   108   110   124     9 
  127   108   110   111     9 
  127   108   110   124     9 
  107   108   127   125     9 
  107   108   127   128     9 
  107   108   127   129     9 
  109   108   127   125     9 
  109   108   127   128     9 
  109   108   127   129     9 
  110   108   127   125     9 
  110   108   127   128     9 
  110   108   127   129     9 
  108   110   111   112     9 
  108   110   111   113     9 
  124   110   111   112     9 
  124   110   111   113     9 
  108   110   124   114     9 
  108   110   124   123     9 
  111   110   124   114     9 
  111   110   124   123     9 
  110   111   113   114     9 
  112   111   113   114     9 
  111   113   114   115     9 
  111   113   114   124     9 
  113   114   115   116     9 
  113   114   115   117     9 
  124   114   115   116     9 
  124   114   115   117     9 
  113   114   124   110     9 
  113   114   124   123     9 
  115   114   124   110     9 
  115   114   124   123     9 
  114   115   117   118     9 
  114   115   117   119     9 
  116   115   117   118     9 
  116   115   117   119     9 
  115   117   119   120     9 
  115   117   119   123     9 
  118   117   119   120     9 
  118   117   119   123     9 
  117   119   120   121     9 
  117   119   120   122     9 
  123   119   120   121     9 
  123   119   120   122     9 
  117   119   123   124     9 
  120   119   123   124     9 
  119   123   124   110     9 
  119   123   124   114     9 
  105   125   127   108     9 
  105   125   127   128     9 
  105   125   127   129     9 
  126   125   127   108     9 
  126   125   127   128     9 
  126   125   127   129     9 
  130   125   127   108     9 
  130   125   127   128     9 
  130   125   127   129     9 
  105   125   130   131     9 
  126   125   130   131     9 
  127   125   130   131     9 
  125   130   131   132     9 
  125   130   131   133     9 
  125   130   131   134     9 
  130   131   134   135     9 
  132   131   134   135     9 
  133   131   134   135     9 
  131   134   135   136     9 
  131   134   135   137     9 
  131   134   135   138     9 
  134   135   138   139     9 
  134   135   138   140     9 
  134   135   138   157     9 
  136   135   138   139     9 
  136   135   138   140     9 
  136   135   138   157     9 
  137   135   138   139     9 
  137   135   138   140     9 
  137   135   138   157     9 
  135   138   140   141     9 
  139   138   140   141     9 
  157   138   140   141     9 
  135   138   157   158     9 
  135   138   157   159     9 
  135   138   157   162     9 
  139   138   157   158     9 
  139   138   157   159     9 
  139   138   157   162     9 
  140   138   157   158     9 
  140   138   157   159     9 
  140   138   157   162     9 
  138   140   141   142     9 
  138   140   141   143     9 
  138   140   141   159     9 
  140   141   143   144     9 
  140   141   143   155     9 
  142   141   143   144     9 
  142   141   143   155     9 
  159   141   143   144     9 
  159   141   143   155     9 
  140   141   159   157     9 
  140   141   159   160     9 
  140   141   159   161     9 
  142   141   159   157     9 
  142   141   159   160     9 
  142   141   159   161     9 
  143   141   159   157     9 
  143   141   159   160     9 
  143   141   159   161     9 
  141   143   144   145     9 
  141   143   144   146     9 
  155   143   144   145     9 
  155   143   144   146     9 
  141   143   155   153     9 
  141   143   155   156     9 
  144   143   155   153     9 
  144   143   155   156     9 
  143   144   146   147     9 
  143   144   146   151     9 
  145   144   146   147     9 
  145   144   146   151     9 
  144   146   147   148     9 
  144   146   147   149     9 
  144   146   147   150     9 
  151   146   147   148     9 
  151   146   147   149     9 
  151   146   147   150     9 
  144   146   151   152     9 
  144   146   151   153     9 
  147   146   151   152     9 
  147   146   151   153     9 
  146   151   153   154     9 
  146   151   153   155     9 
  152   151   153   154     9 
  152   151   153   155     9 
  151   153   155   143     9 
  151   153   155   156     9 
  154   153   155   143     9 
  154   153   155   156     9 
  138   157   159   141     9 
  138   157   159   160     9 
  138   157   159   161     9 
  158   157   159   141     9 
  158   157   159   160     9 
  158   157   159   161     9 
  162   157   159   141     9 
  162   157   159   160     9 
  162   157   159   161     9 
  138   157   162   163     9 
  158   157   162   163     9 
  159   157   162   163     9 
  157   162   163   164     9 
  157   162   163   165     9 
  157   162   163   166     9 
  162   163   166   167     9 
  164   163   166   167     9 
  165   163   166   167     9 
  163   166   167   168     9 
  163   166   167   169     9 
  163   166   167   170     9 
  166   167   170   171     9 
  166   167   170   172     9 
  166   167   170   190     9 
  168   167   170   171     9 
  168   167   170   172     9 
  168   167   170   190     9 
  169   167   170   171     9 
  169   167   170   172     9 
  169   167   170   190     9 
  167   170   172   173     9 
  171   170   172   173     9 
  190   170   172   173     9 
  167   170   190   191     9 
  167   170   190   192     9 
  167   170   190   195     9 
  171   170   190   191     9 
  171   170   190   192     9 
  171   170   190   195     9 
  172   170   190   191     9 
  172   170   190   192     9 
  172   170   190   195     9 
  170   172   173   174     9 
  170   172   173   175     9 
  170   172   173   192     9 
  172   173   175   176     9 
  172   173   175   189     9 
  174   173   175   176     9 
  174   173   175   189     9 
  192   173   175   176     9 
  192   173   175   189     9 
  172   173   192   190     9 
  172   173   192   193     9 
  172   173   192   194     9 
  174   173   192   190     9 
  174   173   192   193     9 
  174   173   192   194     9 
  175   173   192   190     9 
  175   173   192   193     9 
  175   173   192   194     9 
  173   175   176   177     9 
  173   175   176   178     9 
  189   175   176   177     9 
  189   175   176   178     9 
  173   175   189   179     9 
  173   175   189   188     9 
  176   175   189   179     9 
  176   175   189   188     9 
  175   176   178   179     9 
  177   176   178   179     9 
  176   178   179   180     9 
  176   178   179   189     9 
  178   179   180   181     9 
  178   179   180   182     9 
  189   179   180   181     9 
  189   179   180   182     9 
  178   179   189   175     9 
  178   179   189   188     9 
  180   179   189   175     9 
  180   179   189   188     9 
  179   180   182   183     9 
  179   180   182   184     9 
  181   180   182   183     9 
  181   180   182   184     9 
  180   182   184   185     9 
  180   182   184   188     9 
  183   182   184   185     9 
  183   182   184   188     9 
  182   184   185   186     9 
  182   184   185   187     9 
  188   184   185   186     9 
  188   184   185   187     9 
  182   184   188   189     9 
  185   184   188   189     9 
  184   188   189   175     9 
  184   188   189   179     9 
  170   190   192   173     9 
  170   190   192   193     9 
  170   190   192   194     9 
  191   190   192   173     9 
  191   190   192   193     9 
  191   190   192   194     9 
  195   190   192   173     9 
  195   190   192   193     9 
  195   190   192   194     9 
  170   190   195   196     9 
  191   190   195   196     9 
  192   190   195   196     9 
  190   195   196   197     9 
  190   195   196   198     9 
  190   195   196   199     9 
  195   196   199   200     9 
  197   196   199   200     9 
  198   196   199   200     9 
  196   199   200   201     9 
  196   199   200   202     9 
  196   199   200   203     9 
  199   200   203   204     9 
  199   200   203   205     9 
  199   200   203   222     9 
  201   200   203   204     9 
  201   200   203   205     9 
  201   200   203   222     9 
  202   200   203   204     9 
  202   200   203   205     9 
  202   200   203   222     9 
  200   203   205   206     9 
  204   203   205   206     9 
  222   203   205   206     9 
  200   203   222   223     9 
  200   203   222   224     9 
  200   203   222   227     9 
  204   203   222   223     9 
  204   203   222   224     9 
  204   203   222   227     9 
  205   203   222   223     9 
  205   203   222   224     9 
  205   203   222   227     9 
  203   205   206   207     9 
  203   205   206   208     9 
  203   205   206   224     9 
  205   206   208   209     9 
  205   206   208   221     9 
  207   206   208   209     9 
  207   206   208   221     9 
  224   206   208   209     9 
  224   206   208   221     9 
  205   206   224   222     9 
  205   206   224   225     9 
  205   206   224   226     9 
  207   206   224   222     9 
  207   206   224   225     9 
  207   206   224   226     9 
  208   206   224   222     9 
  208   206   224   225     9 
  208   206   224   226     9 
  206   208   209   210     9 
  206   208   209   211     9 
  221   208   209   210     9 
  221   208   209   211     9 
  206   208   221   212     9 
  206   208   221   220     9 
  209   208   221   212     9 
  209   208   221   220     9 
  208   209   211   212     9 
  210   209   211   212     9 
  209   211   212   213     9 
  209   211   212   221     9 
  211   212   213   214     9 
  211   212   213   217     9 
  221   212   213   214     9 
  221   212   213   217     9 
  211   212   221   208     9 
  211   212   221   220     9 
  213   212   221   208     9 
  213   212   221   220     9 
  212   213   214   215     9 
  212   213   214   216     9 
  217   213   214   215     9 
  217   213   214   216     9 
  212   213   217   218     9 
  214   213   217   218     9 
  213   217   218   219     9 
  213   217   218   220     9 
  217   218   220   221     9 
  219   218   220   221     9 
  218   220   221   208     9 
  218   220   221   212     9 
  203   222   224   206     9 
  203   222   224   225     9 
  203   222   224   226     9 
  223   222   224   206     9 
  223   222   224   225     9 
  223   222   224   226     9 
  227   222   224   206     9 
  227   222   224   225     9 
  227   222   224   226     9 
  203   222   227   228     9 
  223   222   227   228     9 
  224   222   227   228     9 
  222   227   228   229     9 
  222   227   228   230     9 
  222   227   228   231     9 
  227   228   231   232     9 
  229   228   231   232     9 
  230   228   231   232     9 
  228   231   232   233     9 
  228   231   232   234     9 
  228   231   232   235     9 
  231   232   235   236     9 
  231   232   235   237     9 
  231   232   235   254     9 
  233   232   235   236     9 
  233   232   235   237     9 
  233   232   235   254     9 
  234   232   235   236     9 
  234   232   235   237     9 
  234   232   235   254     9 
  232   235   237   238     9 
  236   235   237   238     9 
  254   235   237   238     9 
  232   235   254   255     9 
  232   235   254   256     9 
  232   235   254   259     9 
  236   235   254   255     9 
  236   235   254   256     9 
  236   235   254   259     9 
  237   235   254   255     9 
  237   235   254   256     9 
  237   235   254   259     9 
  235   237   238   239     9 
  235   237   238   240     9 
  235   237   238   256     9 
  237   238   240   241     9 
  237   238   240   252     9 
  239   238   240   241     9 
  239   238   240   252     9 
  256   238   240   241     9 
  256   238   240   252     9 
  237   238   256   254     9 
  237   238   256   257     9 
  237   238   256   258     9 
  239   238   256   254     9 
  239   238   256   257     9 
  239   238   256   258     9 
  240   238   256   254     9 
  240   238   256   257     9 
  240   238   256   258     9 
  238   240   241   242     9 
  238   240   241   243     9 
  252   240   241   242     9 
  252   240   241   243     9 
  238   240   252   250     9 
  238   240   252   253     9 
  241   240   252   250     9 
  241   240   252   253     9 
  240   241   243   244     9 
  240   241   243   248     9 
  242   241   243   244     9 
  242   241   243   248     9 
  241   243   244   245     9 
  241   243   244   246     9 
  241   243   244   247     9 
  248   243   244   245     9 
  248   243   244   246     9 
  248   243   244   247     9 
  241   243   248   249     9 
  241   243   248   250     9 
  244   243   248   249     9 
  244   243   248   250     9 
  243   248   250   251     9 
  243   248   250   252     9 
  249   248   250   251     9 
  249   248   250   252     9 
  248   250   252   240     9 
  248   250   252   253     9 
  251   250   252   240     9 
  251   250   252   253     9 
  235   254   256   238     9 
  235   254   256   257     9 
  235   254   256   258     9 
  255   254   256   238     9 
  255   254   256   257     9 
  255   254   256   258     9 
  259   254   256   238     9 
  259   254   256   257     9 
  259   254   256   258     9 
  235   254   259   260     9 
  255   254   259   260     9 
  256   254   259   260     9 
  254   259   260   261     9 
  254   259   260   262     9 
  254   259   260   263     9 
  259   260   263   264     9 
  261   260   263   264     9 
  262   260   263   264     9 
  260   263   264   265     9 
  260   263   264   266     9 
  260   263   264   267     9 
  263   264   267   268     9 
  263   264   267   269     9 
  263   264   267   286     9 
  265   264   267   268     9 
  265   264   267   269     9 
  265   264   267   286     9 
  266   264   267   268     9 
  266   264   267   269     9 
  266   264   267   286     9 
  264   267   269   270     9 
  268   267   269   270     9 
  286   267   269   270     9 
  264   267   286   287     9 
  264   267   286   288     9 
  264   267   286   291     9 
  268   267   286   287     9 
  268   267   286   288     9 
  268   267   286   291     9 
  269   267   286   287     9 
  269   267   286   288     9 
  269   267   286   291     9 
  267   269   270   271     9 
  267   269   270   272     9 
  267   269   270   288     9 
  269   270   272   273     9 
  269   270   272   284     9 
  271   270   272   273     9 
  271   270   272   284     9 
  288   270   272   273     9 
  288   270   272   284     9 
  269   270   288   286     9 
  269   270   288   289     9 
  269   270   288   290     9 
  271   270   288   286     9 
  271   270   288   289     9 
  271   270   288   290     9 
  272   270   288   286     9 
  272   270   288   289     9 
  272   270   288   290     9 
  270   272   273   274     9 
  270   272   273   275     9 
  284   272   273   274     9 
  284   272   273   275     9 
  270   272   284   282     9 
  270   272   284   285     9 
  273   272   284   282     9 
  273   272   284   285     9 
  272   273   275   276     9 
  272   273   275   280     9 
  274   273   275   276     9 
  274   273   275   280     9 
  273   275   276   277     9 
  273   275   276   278     9 
  273   275   276   279     9 
  280   275   276   277     9 
  280   275   276   278     9 
  280   275   276   279     9 
  273   275   280   281     9 
  273   275   280   282     9 
  276   275   280   281     9 
  276   275   280   282     9 
  275   280   282   283     9 
  275   280   282   284     9 
  281   280   282   283     9 
  281   280   282   284     9 
  280   282   284   272     9 
  280   282   284   285     9 
  283   282   284   272     9 
  283   282   284   285     9 
  267   286   288   270     9 
  267   286   288   289     9 
  267   286   288   290     9 
  287   286   288   270     9 
  287   286   288   289     9 
  287   286   288   290     9 
  291   286   288   270     9 
  291   286   288   289     9 
  291   286   288   290     9 
  267   286   291   292     9 
  287   286   291   292     9 
  288   286   291   292     9 
  286   291   292   293     9 
  286   291   292   294     9 
  286   291   292   295     9 
  291   292   295   296     9 
  293   292   295   296     9 
  294   292   295   296     9 
  292   295   296   297     9 
  292   295   296   298     9 
  292   295   296   299     9 
  295   296   299   300     9 
  295   296   299   301     9 
  295   296   299   319     9 
  297   296   299   300     9 
  297   296   299   301     9 
  297   296   299   319     9 
  298   296   299   300     9 
  298   296   299   301     9 
  298   296   299   319     9 
  296   299   301   302     9 
  300   299   301   302     9 
  319   299   301   302     9 
  296   299   319   320     9 
  296   299   319   321     9 
  296   299   319   324     9 
  300   299   319   320     9 
  300   299   319   321     9 
  300   299   319   324     9 
  301   299   319   320     9 
  301   299   319   321     9 
  301   299   319   324     9 
  299   301   302   303     9 
  299   301   302   304     9 
  299   301   302   321     9 
  301   302   304   305     9 
  301   302   304   318     9 
  303   302   304   305     9 
  303   302   304   318     9 
  321   302   304   305     9 
  321   302   304   318     9 
  301   302   321   319     9 
  301   302   321   322     9 
  301   302   321   323     9 
  303   302   321   319     9 
  303   302   321   322     9 
  303   302   321   323     9 
  304   302   321   319     9 
  304   302   321   322     9 
  304   302   321   323     9 
  302   304   305   306     9 
  302   304   305   307     9 
  318   304   305   306     9 
  318   304   305   307     9 
  302   304   318   308     9 
  302   304   318   317     9 
  305   304   318   308     9 
  305   304   318   317     9 
  304   305   307   308     9 
  306   305   307   308     9 
  305   307   308   309     9 
  305   307   308   318     9 
  307   308   309   310     9 
  307   308   309   311     9 
  318   308   309   310     9 
  318   308   309   311     9 
  307   308   318   304     9 
  307   308   318   317     9 
  309   308   318   304     9 
  309   308   318   317     9 
  308   309   311   312     9 
  308   309   311   313     9 
  310   309   311   312     9 
  310   309   311   313     9 
  309   311   313   314     9 
  309   311   313   317     9 
  312   311   313   314     9 
  312   311   313   317     9 
  311   313   314   315     9 
  311   313   314   316     9 
  317   313   314   315     9 
  317   313   314   316     9 
  311   313   317   318     9 
  314   313   317   318     9 
  313   317   318   304     9 
  313   317   318   308     9 
  299   319   321   302     9 
  299   319   321   322     9 
  299   319   321   323     9 
  320   319   321   302     9 
  320   319   321   322     9 
  320   319   321   323     9 
  324   319   321   302     9 
  324   319   321   322     9 
  324   319   321   323     9 
  299   319   324   325     9 
  320   319   324   325     9 
  321   319   324   325     9 
  319   324   325   326     9 
  319   324   325   327     9 
  319   324   325   328     9 
  324   325   328   329     9 
  326   325   328   329     9 
  327   325   328   329     9 
  325   328   329   330     9 
  325   328   329   331     9 
  325   328   329   332     9 
  328   329   332   333     9 
  328   329   332   334     9 
  328   329   332   351     9 
  330   329   332   333     9 
  330   329   332   334     9 
  330   329   332   351     9 
  331   329   332   333     9 
  331   329   332   334     9 
  331   329   332   351     9 
  329   332   334   335     9 
  333   332   334   335     9 
  351   332   334   335     9 
  329   332   351   352     9 
  329   332   351   353     9 
  329   332   351   356     9 
  333   332   351   352     9 
  333   332   351   353     9 
  333   332   351   356     9 
  334   332   351   352     9 
  334   332   351   353     9 
  334   332   351   356     9 
  332   334   335   336     9 
  332   334   335   337     9 
  332   334   335   353     9 
  334   335   337   338     9 
  334   335   337   349     9 
  336   335   337   338     9 
  336   335   337   349     9 
  353   335   337   338     9 
  353   335   337   349     9 
  334   335   353   351     9 
  334   335   353   354     9 
  334   335   353   355     9 
  336   335   353   351     9 
  336   335   353   354     9 
  336   335   353   355     9 
  337   335   353   351     9 
  337   335   353   354     9 
  337   335   353   355     9 
  335   337   338   339     9 
  335   337   338   340     9 
  349   337   338   339     9 
  349   337   338   340     9 
  335   337   349   347     9 
  335   337   349   350     9 
  338   337   349   347     9 
  338   337   349   350     9 
  337   338   340   341     9 
  337   338   340   345     9 
  339   338   340   341     9 
  339   338   340   345     9 
  338   340   341   342     9 
  338   340   341   343     9 
  338   340   341   344     9 
  345   340   341   342     9 
  345   340   341   343     9 
  345   340   341   344     9 
  338   340   345   346     9 
  338   340   345   347     9 
  341   340   345   346     9 
  341   340   345   347     9 
  340   345   347   348     9 
  340   345   347   349     9 
  346   345   347   348     9 
  346   345   347   349     9 
  345   347   349   337     9 
  345   347   349   350     9 
  348   347   349   337     9 
  348   347   349   350     9 
  332   351   353   335     9 
  332   351   353   354     9 
  332   351   353   355     9 
  352   351   353   335     9 
  352   351   353   354     9 
  352   351   353   355     9 
  356   351   353   335     9 
  356   351   353   354     9 
  356   351   353   355     9 
  332   351   356   357     9 
  352   351   356   357     9 
  353   351   356   357     9 
  351   356   357   358     9 
  351   356   357   359     9 
  351   356   357   360     9 
  356   357   360   361     9 
  358   357   360   361     9 
  359   357   360   361     9 
  357   360   361   362     9 
  357   360   361   363     9 
  357   360   361   364     9 
  360   361   364   365     9 
  360   361   364   366     9 
  360   361   364   383     9 
  362   361   364   365     9 
  362   361   364   366     9 
  362   361   364   383     9 
  363   361   364   365     9 
  363   361   364   366     9 
  363   361   364   383     9 
  361   364   366   367     9 
  365   364   366   367     9 
  383   364   366   367     9 
  361   364   383   384     9 
  361   364   383   385     9 
  361   364   383   388     9 
  365   364   383   384     9 
  365   364   383   385     9 
  365   364   383   388     9 
  366   364   383   384     9 
  366   364   383   385     9 
  366   364   383   388     9 
  364   366   367   368     9 
  364   366   367   369     9 
  364   366   367   385     9 
  366   367   369   370     9 
  366   367   369   381     9 
  368   367   369   370     9 
  368   367   369   381     9 
  385   367   369   370     9 
  385   367   369   381     9 
  366   367   385   383     9 
  366   367   385   386     9 
  366   367   385   387     9 
  368   367   385   383     9 
  368   367   385   386     9 
  368   367   385   387     9 
  369   367   385   383     9 
  369   367   385   386     9 
  369   367   385   387     9 
  367   369   370   371     9 
  367   369   370   372     9 
  381   369   370   371     9 
  381   369   370   372     9 
  367   369   381   379     9 
  367   369   381   382     9 
  370   369   381   379     9 
  370   369   381   382     9 
  369   370   372   373     9 
  369   370   372   377     9 
  371   370   372   373     9 
  371   370   372   377     9 
  370   372   373   374     9 
  370   372   373   375     9 
  370   372   373   376     9 
  377   372   373   374     9 
  377   372   373   375     9 
  377   372   373   376     9 
  370   372   377   378     9 
  370   372   377   379     9 
  373   372   377   378     9 
  373   372   377   379     9 
  372   377   379   380     9 
  372   377   379   381     9 
  378   377   379   380     9 
  378   377   379   381     9 
  377   379   381   369     9 
  377   379   381   382     9 
  380   379   381   369     9 
  380   379   381   382     9 
  364   383   385   367     9 
  364   383   385   386     9 
  364   383   385   387     9 
  384   383   385   367     9 
  384   383   385   386     9 
  384   383   385   387     9 
  388   383   385   367     9 
  388   383   385   386     9 
  388   383   385   387     9 
  364   383   388   389     9 
  384   383   388   389     9 
  385   383   388   389     9 
  383   388   389   390     9 
  383   388   389   391     9 
  383   388   389   392     9 
  388   389   392   393     9 
  390   389   392   393     9 
  391   389   392   393     9 
  389   392   393   394     9 
  389   392   393   395     9 
  389   392   393   396     9 
  392   393   396   397     9 
  392   393   396   398     9 
  392   393   396   413     9 
  394   393   396   397     9 
  394   393   396   398     9 
  394   393   396   413     9 
  395   393   396   397     9 
  395   393   396   398     9 
  395   393   396   413     9 
  393   396   398   399     9 
  397   396   398   399     9 
  413   396   398   399     9 
  393   396   413   414     9 
  393   396   413   415     9 
  393   396   413   418     9 
  397   396   413   414     9 
  397   396   413   415     9 
  397   396   413   418     9 
  398   396   413   414     9 
  398   396   413   415     9 
  398   396   413   418     9 
  396   398   399   400     9 
  396   398   399   401     9 
  396   398   399   415     9 
  398   399   401   402     9 
  398   399   401   411     9 
  400   399   401   402     9 
  400   399   401   411     9 
  415   399   401   402     9 
  415   399   401   411     9 
  398   399   415   413     9 
  398   399   415   416     9 
  398   399   415   417     9 
  400   399   415   413     9 
  400   399   415   416     9 
  400   399   415   417     9 
  401   399   415   413     9 
  401   399   415   416     9 
  401   399   415   417     9 
  399   401   402   403     9 
  399   401   402   404     9 
  411   401   402   403     9 
  411   401   402   404     9 
  399   401   411   410     9 
  399   401   411   412     9 
  402   401   411   410     9 
  402   401   411   412     9 
  401   402   404   405     9 
  401   402   404   406     9 
  403   402   404   405     9 
  403   402   404   406     9 
  402   404   406   407     9 
  402   404   406   410     9 
  405   404   406   407     9 
  405   404   406   410     9 
  404   406   407   408     9 
  404   406   407   409     9 
  410   406   407   408     9 
  410   406   407   409     9 
  404   406   410   411     9 
  407   406   410   411     9 
  406   410   411   401     9 
  406   410   411   412     9 
  396   413   415   399     9 
  396   413   415   416     9 
  396   413   415   417     9 
  414   413   415   399     9 
  414   413   415   416     9 
  414   413   415   417     9 
  418   413   415   399     9 
  418   413   415   416     9 
  418   413   415   417     9 
  396   413   418   419     9 
  414   413   418   419     9 
  415   413   418   419     9 
  413   418   419   420     9 
  413   418   419   421     9 
  413   418   419   422     9 
  418   419   422   423     9 
  420   419   422   423     9 
  421   419   422   423     9 
  419   422   423   424     9 
  419   422   423   425     9 
  419   422   423   426     9 
  422   423   426   427     9 
  422   423   426   428     9 
  422   423   426   445     9 
  424   423   426   427     9 
  424   423   426   428     9 
  424   423   426   445     9 
  425   423   426   427     9 
  425   423   426   428     9 
  425   423   426   445     9 
  423   426   428   429     9 
  427   426   428   429     9 
  445   426   428   429     9 
  423   426   445   446     9 
  423   426   445   447     9 
  423   426   445   450     9 
  427   426   445   446     9 
  427   426   445   447     9 
  427   426   445   450     9 
  428   426   445   446     9 
  428   426   445   447     9 
  428   426   445   450     9 
  426   428   429   430     9 
  426   428   429   431     9 
  426   428   429   447     9 
  428   429   431   432     9 
  428   429   431   444     9 
  430   429   431   432     9 
  430   429   431   444     9 
  447   429   431   432     9 
  447   429   431   444     9 
  428   429   447   445     9 
  428   429   447   448     9 
  428   429   447   449     9 
  430   429   447   445     9 
  430   429   447   448     9 
  430   429   447   449     9 
  431   429   447   445     9 
  431   429   447   448     9 
  431   429   447   449     9 
  429   431   432   433     9 
  429   431   432   434     9 
  444   431   432   433     9 
  444   431   432   434     9 
  429   431   444   435     9 
  429   431   444   443     9 
  432   431   444   435     9 
  432   431   444   443     9 
  431   432   434   435     9 
  433   432   434   435     9 
  432   434   435   436     9 
  432   434   435   444     9 
  434   435   436   437     9 
  434   435   436   440     9 
  444   435   436   437     9 
  444   435   436   440     9 
  434   435   444   431     9 
  434   435   444   443     9 
  436   435   444   431     9 
  436   435   444   443     9 
  435   436   437   438     9 
  435   436   437   439     9 
  440   436   437   438     9 
  440   436   437   439     9 
  435   436   440   441     9 
  437   436   440   441     9 
  436   440   441   442     9 
  436   440   441   443     9 
  440   441   443   444     9 
  442   441   443   444     9 
  441   443   444   431     9 
  441   443   444   435     9 
  426   445   447   429     9 
  426   445   447   448     9 
  426   445   447   449     9 
  446   445   447   429     9 
  446   445   447   448     9 
  446   445   447   449     9 
  450   445   447   429     9 
  450   445   447   448     9 
  450   445   447   449     9 
  426   445   450   451     9 
  446   445   450   451     9 
  447   445   450   451     9 
  445   450   451   452     9 
  445   450   451   453     9 
  445   450   451   454     9 
  450   451   454   455     9 
  452   451   454   455     9 
  453   451   454   455     9 
  451   454   455   456     9 
  451   454   455   457     9 
  451   454   455   458     9 
  454   455   458   459     9 
  454   455   458   460     9 
  454   455   458   478     9 
  456   455   458   459     9 
  456   455   458   460     9 
  456   455   458   478     9 
  457   455   458   459     9 
  457   455   458   460     9 
  457   455   458   478     9 
  455   458   460   461     9 
  459   458   460   461     9 
  478   458   460   461     9 
  455   458   478   479     9 
  455   458   478   480     9 
  455   458   478   483     9 
  459   458   478   479     9 
  459   458   478   480     9 
  459   458   478   483     9 
  460   458   478   479     9 
  460   458   478   480     9 
  460   458   478   483     9 
  458   460   461   462     9 
  458   460   461   463     9 
  458   460   461   480     9 
  460   461   463   464     9 
  460   461   463   477     9 
  462   461   463   464     9 
  462   461   463   477     9 
  480   461   463   464     9 
  480   461   463   477     9 
  460   461   480   478     9 
  460   461   480   481     9 
  460   461   480   482     9 
  462   461   480   478     9 
  462   461   480   481     9 
  462   461   480   482     9 
  463   461   480   478     9 
  463   461   480   481     9 
  463   461   480   482     9 
  461   463   464   465     9 
  461   463   464   466     9 
  477   463   464   465     9 
  477   463   464   466     9 
  461   463   477   467     9 
  461   463   477   476     9 
  464   463   477   467     9 
  464   463   477   476     9 
  463   464   466   467     9 
  465   464   466   467     9 
  464   466   467   468     9 
  464   466   467   477     9 
  466   467   468   469     9 
  466   467   468   470     9 
  477   467   468   469     9 
  477   467   468   470     9 
  466   467   477   463     9 
  466   467   477   476     9 
  468   467   477   463     9 
  468   467   477   476     9 
  467   468   470   471     9 
  467   468   470   472     9 
  469   468   470   471     9 
  469   468   470   472     9 
  468   470   472   473     9 
  468   470   472   476     9 
  471   470   472   473     9 
  471   470   472   476     9 
  470   472   473   474     9 
  470   472   473   475     9 
  476   472   473   474     9 
  476   472   473   475     9 
  470   472   476   477     9 
  473   472   476   477     9 
  472   476   477   463     9 
  472   476   477   467     9 
  458   478   480   461     9 
  458   478   480   481     9 
  458   478   480   482     9 
  479   478   480   461     9 
  479   478   480   481     9 
  479   478   480   482     9 
  483   478   480   461     9 
  483   478   480   481     9 
  483   478   480   482     9 
  458   478   483   484     9 
  479   478   483   484     9 
  480   478   483   484     9 

[ dihedrals ]
;  ai    aj    ak    al funct            c0            c1            c2            c3
    9    11    12    25     4 
   11    14    12    13     4 
   15    18    16    17     4 
   16    20    18    19     4 
   20    22    21    23     4 
   21    18    20    24     4 
   42    44    45    58     4 
   44    47    45    46     4 
   48    51    49    50     4 
   49    53    51    52     4 
   53    55    54    56     4 
   54    51    53    57     4 
   75    77    78    91     4 
   77    80    78    79     4 
   81    84    82    83     4 
   82    86    84    85     4 
   86    88    87    89     4 
   87    84    86    90     4 
  108   110   111   124     4 
  110   113   111   112     4 
  114   117   115   116     4 
  115   119   117   118     4 
  119   121   120   122     4 
  120   117   119   123     4 
  141   143   144   155     4 
  143   146   144   145     4 
  143   153   155   156     4 
  146   153   151   152     4 
  147   146   144   151     4 
  151   155   153   154     4 
  173   175   176   189     4 
  175   178   176   177     4 
  179   182   180   181     4 
  180   184   182   183     4 
  184   186   185   187     4 
  185   182   184   188     4 
  206   208   209   221     4 
  208   211   209   210     4 
  212   214   213   217     4 
  213   215   214   216     4 
  217   220   218   219     4 
  238   240   241   252     4 
  240   243   241   242     4 
  240   250   252   253     4 
  243   250   248   249     4 
  244   243   241   248     4 
  248   252   250   251     4 
  270   272   273   284     4 
  272   275   273   274     4 
  272   282   284   285     4 
  275   282   280   281     4 
  276   275   273   280     4 
  280   284   282   283     4 
  302   304   305   318     4 
  304   307   305   306     4 
  308   311   309   310     4 
  309   313   311   312     4 
  313   315   314   316     4 
  314   311   313   317     4 
  335   337   338   349     4 
  337   340   338   339     4 
  337   347   349   350     4 
  340   347   345   346     4 
  341   340   338   345     4 
  345   349   347   348     4 
  367   369   370   381     4 
  369   372   370   371     4 
  369   379   381   382     4 
  372   379   377   378     4 
  373   372   370   377     4 
  377   381   379   380     4 
  399   401   402   411     4 
  401   404   402   403     4 
  401   410   411   412     4 
  402   406   404   405     4 
  404   407   406   410     4 
  406   408   407   409     4 
  429   431   432   444     4 
  431   434   432   433     4 
  435   437   436   440     4 
  436   438   437   439     4 
  440   443   441   442     4 
  461   463   464   477     4 
  463   466   464   465     4 
  467   470   468   469     4 
  468   472   470   471     4 
  472   474   473   475     4 
  473   470   472   476     4 

; Include Position restraint file
#ifdef POSRES
#include "1T63D_DNA_parambsc1_tip3p_DNA_chain_B_pr.itp"
#endif

