;
;	File '2Nhp6A_DNA_parambsc1_tip3p_DNA_chain_D.itp' was generated
;	At date: Tue Jan 13 10:16:46 2026
;
;	This is a include topology file
;
;	Created by:
;	                    :-) GROMACS - gmx pdb2gmx, 2019.6 (-:
;	
;	Executable:   /home/david/anaconda3/envs/plumed-masterclass/bin/gmx
;	Data prefix:  /home/david/anaconda3/envs/plumed-masterclass
;	Command line:
;	  gmx pdb2gmx -f AF_Nhp6A/2Nhp6A_DNA_AF_fix.pdb -ignh -p 2Nhp6A_DNA_parambsc1_tip3p -o data/2Nhp6A_DNA_parambsc1_tip3p -i 2Nhp6A_DNA_parambsc1_tip3p -n data/2Nhp6A_DNA_parambsc1_tip3p
;	Force field was read from current directory or a relative path - path added.
;

[ moleculetype ]
; Name            nrexcl
DNA_chain_D         3

[ atoms ]
;   nr       type  resnr residue  atom   cgnr     charge       mass  typeB    chargeB      massB
; residue   1 DC  rtp DC5  q -0.3
     1         OH      1     DC    O5'      1    -0.6318         16
     2         HO      1     DC    H5T      2     0.4422      1.008
     3         CI      1     DC    C5'      3    -0.0069      12.01
     4         H1      1     DC   H5'1      4     0.0754      1.008
     5         H1      1     DC   H5'2      5     0.0754      1.008
     6         CT      1     DC    C4'      6     0.1629      12.01
     7         H1      1     DC    H4'      7     0.1176      1.008
     8         OS      1     DC    O4'      8    -0.3691         16
     9         CT      1     DC    C1'      9    -0.0116      12.01
    10         H2      1     DC    H1'     10     0.1963      1.008
    11         N*      1     DC     N1     11    -0.0339      14.01
    12         CM      1     DC     C6     12    -0.0183      12.01
    13         H4      1     DC     H6     13     0.2293      1.008
    14         CM      1     DC     C5     14    -0.5222      12.01
    15         HA      1     DC     H5     15     0.1863      1.008
    16         CA      1     DC     C4     16     0.8439      12.01
    17         N2      1     DC     N4     17    -0.9773      14.01
    18          H      1     DC    H41     18     0.4314      1.008
    19          H      1     DC    H42     19     0.4314      1.008
    20         NC      1     DC     N3     20    -0.7748      14.01
    21          C      1     DC     C2     21     0.7959      12.01
    22          O      1     DC     O2     22    -0.6548         16
    23         CE      1     DC    C3'     23     0.0713     12.001
    24         H1      1     DC    H3'     24     0.0985      1.008
    25         CT      1     DC    C2'     25    -0.0854      12.01
    26         HC      1     DC   H2'1     26     0.0718      1.008
    27         HC      1     DC   H2'2     27     0.0718      1.008
    28         OS      1     DC    O3'     28    -0.5232         16   ; qtot -0.3079
; residue   2 DT  rtp DT   q -1.0
    29          P      2     DT      P     29     1.1659      30.97
    30         O2      2     DT    O1P     30    -0.7761         16
    31         O2      2     DT    O2P     31    -0.7761         16
    32         OS      2     DT    O5'     32    -0.4954         16
    33         CI      2     DT    C5'     33    -0.0069      12.01
    34         H1      2     DT   H5'1     34     0.0754      1.008
    35         H1      2     DT   H5'2     35     0.0754      1.008
    36         CT      2     DT    C4'     36     0.1629      12.01
    37         H1      2     DT    H4'     37     0.1176      1.008
    38         OS      2     DT    O4'     38    -0.3691         16
    39         CT      2     DT    C1'     39      0.068      12.01
    40         H2      2     DT    H1'     40     0.1804      1.008
    41         N*      2     DT     N1     41    -0.0239      14.01
    42         C2      2     DT     C6     42    -0.2209      12.01
    43         H4      2     DT     H6     43     0.2607      1.008
    44         C2      2     DT     C5     44     0.0025      12.01
    45         CT      2     DT     C7     45    -0.2269      12.01
    46         HC      2     DT    H71     46      0.077      1.008
    47         HC      2     DT    H72     47      0.077      1.008
    48         HC      2     DT    H73     48      0.077      1.008
    49          C      2     DT     C4     49     0.5194      12.01
    50          O      2     DT     O4     50    -0.5563         16
    51         NA      2     DT     N3     51     -0.434      14.01
    52          H      2     DT     H3     52      0.342      1.008
    53          C      2     DT     C2     53     0.5677      12.01
    54          O      2     DT     O2     54    -0.5881         16
    55         CE      2     DT    C3'     55     0.0713     12.001
    56         H1      2     DT    H3'     56     0.0985      1.008
    57         CT      2     DT    C2'     57    -0.0854      12.01
    58         HC      2     DT   H2'1     58     0.0718      1.008
    59         HC      2     DT   H2'2     59     0.0718      1.008
    60         OS      2     DT    O3'     60    -0.5232         16   ; qtot -1.308
; residue   3 DG  rtp DG   q -1.0
    61          P      3     DG      P     61     1.1659      30.97
    62         O2      3     DG    O1P     62    -0.7761         16
    63         O2      3     DG    O2P     63    -0.7761         16
    64         OS      3     DG    O5'     64    -0.4954         16
    65         CI      3     DG    C5'     65    -0.0069      12.01
    66         H1      3     DG   H5'1     66     0.0754      1.008
    67         H1      3     DG   H5'2     67     0.0754      1.008
    68         CT      3     DG    C4'     68     0.1629      12.01
    69         H1      3     DG    H4'     69     0.1176      1.008
    70         OS      3     DG    O4'     70    -0.3691         16
    71         CT      3     DG    C1'     71     0.0358      12.01
    72         H2      3     DG    H1'     72     0.1746      1.008
    73         N*      3     DG     N9     73     0.0577      14.01
    74         CK      3     DG     C8     74     0.0736      12.01
    75         H5      3     DG     H8     75     0.1997      1.008
    76         NB      3     DG     N7     76    -0.5725      14.01
    77         CB      3     DG     C5     77     0.1991      12.01
    78          C      3     DG     C6     78     0.4918      12.01
    79          O      3     DG     O6     79    -0.5699         16
    80         NA      3     DG     N1     80    -0.5053      14.01
    81          H      3     DG     H1     81      0.352      1.008
    82         CA      3     DG     C2     82     0.7432      12.01
    83         N2      3     DG     N2     83     -0.923      14.01
    84          H      3     DG    H21     84     0.4235      1.008
    85          H      3     DG    H22     85     0.4235      1.008
    86         NC      3     DG     N3     86    -0.6636      14.01
    87         CB      3     DG     C4     87     0.1814      12.01
    88         CE      3     DG    C3'     88     0.0713     12.001
    89         H1      3     DG    H3'     89     0.0985      1.008
    90         CT      3     DG    C2'     90    -0.0854      12.01
    91         HC      3     DG   H2'1     91     0.0718      1.008
    92         HC      3     DG   H2'2     92     0.0718      1.008
    93         OS      3     DG    O3'     93    -0.5232         16   ; qtot -2.308
; residue   4 DA  rtp DA   q -1.0
    94          P      4     DA      P     94     1.1659      30.97
    95         O2      4     DA    O1P     95    -0.7761         16
    96         O2      4     DA    O2P     96    -0.7761         16
    97         OS      4     DA    O5'     97    -0.4954         16
    98         CI      4     DA    C5'     98    -0.0069      12.01
    99         H1      4     DA   H5'1     99     0.0754      1.008
   100         H1      4     DA   H5'2    100     0.0754      1.008
   101         CT      4     DA    C4'    101     0.1629      12.01
   102         H1      4     DA    H4'    102     0.1176      1.008
   103         OS      4     DA    O4'    103    -0.3691         16
   104         CT      4     DA    C1'    104     0.0431      12.01
   105         H2      4     DA    H1'    105     0.1838      1.008
   106         N*      4     DA     N9    106    -0.0268      14.01
   107         C1      4     DA     C8    107     0.1607      12.01
   108         H5      4     DA     H8    108     0.1877      1.008
   109         NB      4     DA     N7    109    -0.6175      14.01
   110         CB      4     DA     C5    110     0.0725      12.01
   111         CA      4     DA     C6    111     0.6897      12.01
   112         N2      4     DA     N6    112    -0.9123      14.01
   113          H      4     DA    H61    113     0.4167      1.008
   114          H      4     DA    H62    114     0.4167      1.008
   115         NC      4     DA     N1    115    -0.7624      14.01
   116         CQ      4     DA     C2    116     0.5716      12.01
   117         H5      4     DA     H2    117     0.0598      1.008
   118         NC      4     DA     N3    118    -0.7417      14.01
   119         CB      4     DA     C4    119       0.38      12.01
   120         CE      4     DA    C3'    120     0.0713     12.001
   121         H1      4     DA    H3'    121     0.0985      1.008
   122         CT      4     DA    C2'    122    -0.0854      12.01
   123         HC      4     DA   H2'1    123     0.0718      1.008
   124         HC      4     DA   H2'2    124     0.0718      1.008
   125         OS      4     DA    O3'    125    -0.5232         16   ; qtot -3.308
; residue   5 DA  rtp DA   q -1.0
   126          P      5     DA      P    126     1.1659      30.97
   127         O2      5     DA    O1P    127    -0.7761         16
   128         O2      5     DA    O2P    128    -0.7761         16
   129         OS      5     DA    O5'    129    -0.4954         16
   130         CI      5     DA    C5'    130    -0.0069      12.01
   131         H1      5     DA   H5'1    131     0.0754      1.008
   132         H1      5     DA   H5'2    132     0.0754      1.008
   133         CT      5     DA    C4'    133     0.1629      12.01
   134         H1      5     DA    H4'    134     0.1176      1.008
   135         OS      5     DA    O4'    135    -0.3691         16
   136         CT      5     DA    C1'    136     0.0431      12.01
   137         H2      5     DA    H1'    137     0.1838      1.008
   138         N*      5     DA     N9    138    -0.0268      14.01
   139         C1      5     DA     C8    139     0.1607      12.01
   140         H5      5     DA     H8    140     0.1877      1.008
   141         NB      5     DA     N7    141    -0.6175      14.01
   142         CB      5     DA     C5    142     0.0725      12.01
   143         CA      5     DA     C6    143     0.6897      12.01
   144         N2      5     DA     N6    144    -0.9123      14.01
   145          H      5     DA    H61    145     0.4167      1.008
   146          H      5     DA    H62    146     0.4167      1.008
   147         NC      5     DA     N1    147    -0.7624      14.01
   148         CQ      5     DA     C2    148     0.5716      12.01
   149         H5      5     DA     H2    149     0.0598      1.008
   150         NC      5     DA     N3    150    -0.7417      14.01
   151         CB      5     DA     C4    151       0.38      12.01
   152         CE      5     DA    C3'    152     0.0713     12.001
   153         H1      5     DA    H3'    153     0.0985      1.008
   154         CT      5     DA    C2'    154    -0.0854      12.01
   155         HC      5     DA   H2'1    155     0.0718      1.008
   156         HC      5     DA   H2'2    156     0.0718      1.008
   157         OS      5     DA    O3'    157    -0.5232         16   ; qtot -4.308
; residue   6 DC  rtp DC   q -1.0
   158          P      6     DC      P    158     1.1659      30.97
   159         O2      6     DC    O1P    159    -0.7761         16
   160         O2      6     DC    O2P    160    -0.7761         16
   161         OS      6     DC    O5'    161    -0.4954         16
   162         CI      6     DC    C5'    162    -0.0069      12.01
   163         H1      6     DC   H5'1    163     0.0754      1.008
   164         H1      6     DC   H5'2    164     0.0754      1.008
   165         CT      6     DC    C4'    165     0.1629      12.01
   166         H1      6     DC    H4'    166     0.1176      1.008
   167         OS      6     DC    O4'    167    -0.3691         16
   168         CT      6     DC    C1'    168    -0.0116      12.01
   169         H2      6     DC    H1'    169     0.1963      1.008
   170         N*      6     DC     N1    170    -0.0339      14.01
   171         CM      6     DC     C6    171    -0.0183      12.01
   172         H4      6     DC     H6    172     0.2293      1.008
   173         CM      6     DC     C5    173    -0.5222      12.01
   174         HA      6     DC     H5    174     0.1863      1.008
   175         CA      6     DC     C4    175     0.8439      12.01
   176         N2      6     DC     N4    176    -0.9773      14.01
   177          H      6     DC    H41    177     0.4314      1.008
   178          H      6     DC    H42    178     0.4314      1.008
   179         NC      6     DC     N3    179    -0.7748      14.01
   180          C      6     DC     C2    180     0.7959      12.01
   181          O      6     DC     O2    181    -0.6548         16
   182         CE      6     DC    C3'    182     0.0713     12.001
   183         H1      6     DC    H3'    183     0.0985      1.008
   184         CT      6     DC    C2'    184    -0.0854      12.01
   185         HC      6     DC   H2'1    185     0.0718      1.008
   186         HC      6     DC   H2'2    186     0.0718      1.008
   187         OS      6     DC    O3'    187    -0.5232         16   ; qtot -5.308
; residue   7 DA  rtp DA   q -1.0
   188          P      7     DA      P    188     1.1659      30.97
   189         O2      7     DA    O1P    189    -0.7761         16
   190         O2      7     DA    O2P    190    -0.7761         16
   191         OS      7     DA    O5'    191    -0.4954         16
   192         CI      7     DA    C5'    192    -0.0069      12.01
   193         H1      7     DA   H5'1    193     0.0754      1.008
   194         H1      7     DA   H5'2    194     0.0754      1.008
   195         CT      7     DA    C4'    195     0.1629      12.01
   196         H1      7     DA    H4'    196     0.1176      1.008
   197         OS      7     DA    O4'    197    -0.3691         16
   198         CT      7     DA    C1'    198     0.0431      12.01
   199         H2      7     DA    H1'    199     0.1838      1.008
   200         N*      7     DA     N9    200    -0.0268      14.01
   201         C1      7     DA     C8    201     0.1607      12.01
   202         H5      7     DA     H8    202     0.1877      1.008
   203         NB      7     DA     N7    203    -0.6175      14.01
   204         CB      7     DA     C5    204     0.0725      12.01
   205         CA      7     DA     C6    205     0.6897      12.01
   206         N2      7     DA     N6    206    -0.9123      14.01
   207          H      7     DA    H61    207     0.4167      1.008
   208          H      7     DA    H62    208     0.4167      1.008
   209         NC      7     DA     N1    209    -0.7624      14.01
   210         CQ      7     DA     C2    210     0.5716      12.01
   211         H5      7     DA     H2    211     0.0598      1.008
   212         NC      7     DA     N3    212    -0.7417      14.01
   213         CB      7     DA     C4    213       0.38      12.01
   214         CE      7     DA    C3'    214     0.0713     12.001
   215         H1      7     DA    H3'    215     0.0985      1.008
   216         CT      7     DA    C2'    216    -0.0854      12.01
   217         HC      7     DA   H2'1    217     0.0718      1.008
   218         HC      7     DA   H2'2    218     0.0718      1.008
   219         OS      7     DA    O3'    219    -0.5232         16   ; qtot -6.308
; residue   8 DA  rtp DA   q -1.0
   220          P      8     DA      P    220     1.1659      30.97
   221         O2      8     DA    O1P    221    -0.7761         16
   222         O2      8     DA    O2P    222    -0.7761         16
   223         OS      8     DA    O5'    223    -0.4954         16
   224         CI      8     DA    C5'    224    -0.0069      12.01
   225         H1      8     DA   H5'1    225     0.0754      1.008
   226         H1      8     DA   H5'2    226     0.0754      1.008
   227         CT      8     DA    C4'    227     0.1629      12.01
   228         H1      8     DA    H4'    228     0.1176      1.008
   229         OS      8     DA    O4'    229    -0.3691         16
   230         CT      8     DA    C1'    230     0.0431      12.01
   231         H2      8     DA    H1'    231     0.1838      1.008
   232         N*      8     DA     N9    232    -0.0268      14.01
   233         C1      8     DA     C8    233     0.1607      12.01
   234         H5      8     DA     H8    234     0.1877      1.008
   235         NB      8     DA     N7    235    -0.6175      14.01
   236         CB      8     DA     C5    236     0.0725      12.01
   237         CA      8     DA     C6    237     0.6897      12.01
   238         N2      8     DA     N6    238    -0.9123      14.01
   239          H      8     DA    H61    239     0.4167      1.008
   240          H      8     DA    H62    240     0.4167      1.008
   241         NC      8     DA     N1    241    -0.7624      14.01
   242         CQ      8     DA     C2    242     0.5716      12.01
   243         H5      8     DA     H2    243     0.0598      1.008
   244         NC      8     DA     N3    244    -0.7417      14.01
   245         CB      8     DA     C4    245       0.38      12.01
   246         CE      8     DA    C3'    246     0.0713     12.001
   247         H1      8     DA    H3'    247     0.0985      1.008
   248         CT      8     DA    C2'    248    -0.0854      12.01
   249         HC      8     DA   H2'1    249     0.0718      1.008
   250         HC      8     DA   H2'2    250     0.0718      1.008
   251         OS      8     DA    O3'    251    -0.5232         16   ; qtot -7.308
; residue   9 DT  rtp DT   q -1.0
   252          P      9     DT      P    252     1.1659      30.97
   253         O2      9     DT    O1P    253    -0.7761         16
   254         O2      9     DT    O2P    254    -0.7761         16
   255         OS      9     DT    O5'    255    -0.4954         16
   256         CI      9     DT    C5'    256    -0.0069      12.01
   257         H1      9     DT   H5'1    257     0.0754      1.008
   258         H1      9     DT   H5'2    258     0.0754      1.008
   259         CT      9     DT    C4'    259     0.1629      12.01
   260         H1      9     DT    H4'    260     0.1176      1.008
   261         OS      9     DT    O4'    261    -0.3691         16
   262         CT      9     DT    C1'    262      0.068      12.01
   263         H2      9     DT    H1'    263     0.1804      1.008
   264         N*      9     DT     N1    264    -0.0239      14.01
   265         C2      9     DT     C6    265    -0.2209      12.01
   266         H4      9     DT     H6    266     0.2607      1.008
   267         C2      9     DT     C5    267     0.0025      12.01
   268         CT      9     DT     C7    268    -0.2269      12.01
   269         HC      9     DT    H71    269      0.077      1.008
   270         HC      9     DT    H72    270      0.077      1.008
   271         HC      9     DT    H73    271      0.077      1.008
   272          C      9     DT     C4    272     0.5194      12.01
   273          O      9     DT     O4    273    -0.5563         16
   274         NA      9     DT     N3    274     -0.434      14.01
   275          H      9     DT     H3    275      0.342      1.008
   276          C      9     DT     C2    276     0.5677      12.01
   277          O      9     DT     O2    277    -0.5881         16
   278         CE      9     DT    C3'    278     0.0713     12.001
   279         H1      9     DT    H3'    279     0.0985      1.008
   280         CT      9     DT    C2'    280    -0.0854      12.01
   281         HC      9     DT   H2'1    281     0.0718      1.008
   282         HC      9     DT   H2'2    282     0.0718      1.008
   283         OS      9     DT    O3'    283    -0.5232         16   ; qtot -8.308
; residue  10 DC  rtp DC   q -1.0
   284          P     10     DC      P    284     1.1659      30.97
   285         O2     10     DC    O1P    285    -0.7761         16
   286         O2     10     DC    O2P    286    -0.7761         16
   287         OS     10     DC    O5'    287    -0.4954         16
   288         CI     10     DC    C5'    288    -0.0069      12.01
   289         H1     10     DC   H5'1    289     0.0754      1.008
   290         H1     10     DC   H5'2    290     0.0754      1.008
   291         CT     10     DC    C4'    291     0.1629      12.01
   292         H1     10     DC    H4'    292     0.1176      1.008
   293         OS     10     DC    O4'    293    -0.3691         16
   294         CT     10     DC    C1'    294    -0.0116      12.01
   295         H2     10     DC    H1'    295     0.1963      1.008
   296         N*     10     DC     N1    296    -0.0339      14.01
   297         CM     10     DC     C6    297    -0.0183      12.01
   298         H4     10     DC     H6    298     0.2293      1.008
   299         CM     10     DC     C5    299    -0.5222      12.01
   300         HA     10     DC     H5    300     0.1863      1.008
   301         CA     10     DC     C4    301     0.8439      12.01
   302         N2     10     DC     N4    302    -0.9773      14.01
   303          H     10     DC    H41    303     0.4314      1.008
   304          H     10     DC    H42    304     0.4314      1.008
   305         NC     10     DC     N3    305    -0.7748      14.01
   306          C     10     DC     C2    306     0.7959      12.01
   307          O     10     DC     O2    307    -0.6548         16
   308         CE     10     DC    C3'    308     0.0713     12.001
   309         H1     10     DC    H3'    309     0.0985      1.008
   310         CT     10     DC    C2'    310    -0.0854      12.01
   311         HC     10     DC   H2'1    311     0.0718      1.008
   312         HC     10     DC   H2'2    312     0.0718      1.008
   313         OS     10     DC    O3'    313    -0.5232         16   ; qtot -9.308
; residue  11 DA  rtp DA   q -1.0
   314          P     11     DA      P    314     1.1659      30.97
   315         O2     11     DA    O1P    315    -0.7761         16
   316         O2     11     DA    O2P    316    -0.7761         16
   317         OS     11     DA    O5'    317    -0.4954         16
   318         CI     11     DA    C5'    318    -0.0069      12.01
   319         H1     11     DA   H5'1    319     0.0754      1.008
   320         H1     11     DA   H5'2    320     0.0754      1.008
   321         CT     11     DA    C4'    321     0.1629      12.01
   322         H1     11     DA    H4'    322     0.1176      1.008
   323         OS     11     DA    O4'    323    -0.3691         16
   324         CT     11     DA    C1'    324     0.0431      12.01
   325         H2     11     DA    H1'    325     0.1838      1.008
   326         N*     11     DA     N9    326    -0.0268      14.01
   327         C1     11     DA     C8    327     0.1607      12.01
   328         H5     11     DA     H8    328     0.1877      1.008
   329         NB     11     DA     N7    329    -0.6175      14.01
   330         CB     11     DA     C5    330     0.0725      12.01
   331         CA     11     DA     C6    331     0.6897      12.01
   332         N2     11     DA     N6    332    -0.9123      14.01
   333          H     11     DA    H61    333     0.4167      1.008
   334          H     11     DA    H62    334     0.4167      1.008
   335         NC     11     DA     N1    335    -0.7624      14.01
   336         CQ     11     DA     C2    336     0.5716      12.01
   337         H5     11     DA     H2    337     0.0598      1.008
   338         NC     11     DA     N3    338    -0.7417      14.01
   339         CB     11     DA     C4    339       0.38      12.01
   340         CE     11     DA    C3'    340     0.0713     12.001
   341         H1     11     DA    H3'    341     0.0985      1.008
   342         CT     11     DA    C2'    342    -0.0854      12.01
   343         HC     11     DA   H2'1    343     0.0718      1.008
   344         HC     11     DA   H2'2    344     0.0718      1.008
   345         OS     11     DA    O3'    345    -0.5232         16   ; qtot -10.31
; residue  12 DC  rtp DC   q -1.0
   346          P     12     DC      P    346     1.1659      30.97
   347         O2     12     DC    O1P    347    -0.7761         16
   348         O2     12     DC    O2P    348    -0.7761         16
   349         OS     12     DC    O5'    349    -0.4954         16
   350         CI     12     DC    C5'    350    -0.0069      12.01
   351         H1     12     DC   H5'1    351     0.0754      1.008
   352         H1     12     DC   H5'2    352     0.0754      1.008
   353         CT     12     DC    C4'    353     0.1629      12.01
   354         H1     12     DC    H4'    354     0.1176      1.008
   355         OS     12     DC    O4'    355    -0.3691         16
   356         CT     12     DC    C1'    356    -0.0116      12.01
   357         H2     12     DC    H1'    357     0.1963      1.008
   358         N*     12     DC     N1    358    -0.0339      14.01
   359         CM     12     DC     C6    359    -0.0183      12.01
   360         H4     12     DC     H6    360     0.2293      1.008
   361         CM     12     DC     C5    361    -0.5222      12.01
   362         HA     12     DC     H5    362     0.1863      1.008
   363         CA     12     DC     C4    363     0.8439      12.01
   364         N2     12     DC     N4    364    -0.9773      14.01
   365          H     12     DC    H41    365     0.4314      1.008
   366          H     12     DC    H42    366     0.4314      1.008
   367         NC     12     DC     N3    367    -0.7748      14.01
   368          C     12     DC     C2    368     0.7959      12.01
   369          O     12     DC     O2    369    -0.6548         16
   370         CE     12     DC    C3'    370     0.0713     12.001
   371         H1     12     DC    H3'    371     0.0985      1.008
   372         CT     12     DC    C2'    372    -0.0854      12.01
   373         HC     12     DC   H2'1    373     0.0718      1.008
   374         HC     12     DC   H2'2    374     0.0718      1.008
   375         OS     12     DC    O3'    375    -0.5232         16   ; qtot -11.31
; residue  13 DC  rtp DC   q -1.0
   376          P     13     DC      P    376     1.1659      30.97
   377         O2     13     DC    O1P    377    -0.7761         16
   378         O2     13     DC    O2P    378    -0.7761         16
   379         OS     13     DC    O5'    379    -0.4954         16
   380         CI     13     DC    C5'    380    -0.0069      12.01
   381         H1     13     DC   H5'1    381     0.0754      1.008
   382         H1     13     DC   H5'2    382     0.0754      1.008
   383         CT     13     DC    C4'    383     0.1629      12.01
   384         H1     13     DC    H4'    384     0.1176      1.008
   385         OS     13     DC    O4'    385    -0.3691         16
   386         CT     13     DC    C1'    386    -0.0116      12.01
   387         H2     13     DC    H1'    387     0.1963      1.008
   388         N*     13     DC     N1    388    -0.0339      14.01
   389         CM     13     DC     C6    389    -0.0183      12.01
   390         H4     13     DC     H6    390     0.2293      1.008
   391         CM     13     DC     C5    391    -0.5222      12.01
   392         HA     13     DC     H5    392     0.1863      1.008
   393         CA     13     DC     C4    393     0.8439      12.01
   394         N2     13     DC     N4    394    -0.9773      14.01
   395          H     13     DC    H41    395     0.4314      1.008
   396          H     13     DC    H42    396     0.4314      1.008
   397         NC     13     DC     N3    397    -0.7748      14.01
   398          C     13     DC     C2    398     0.7959      12.01
   399          O     13     DC     O2    399    -0.6548         16
   400         CE     13     DC    C3'    400     0.0713     12.001
   401         H1     13     DC    H3'    401     0.0985      1.008
   402         CT     13     DC    C2'    402    -0.0854      12.01
   403         HC     13     DC   H2'1    403     0.0718      1.008
   404         HC     13     DC   H2'2    404     0.0718      1.008
   405         OS     13     DC    O3'    405    -0.5232         16   ; qtot -12.31
; residue  14 DC  rtp DC   q -1.0
   406          P     14     DC      P    406     1.1659      30.97
   407         O2     14     DC    O1P    407    -0.7761         16
   408         O2     14     DC    O2P    408    -0.7761         16
   409         OS     14     DC    O5'    409    -0.4954         16
   410         CI     14     DC    C5'    410    -0.0069      12.01
   411         H1     14     DC   H5'1    411     0.0754      1.008
   412         H1     14     DC   H5'2    412     0.0754      1.008
   413         CT     14     DC    C4'    413     0.1629      12.01
   414         H1     14     DC    H4'    414     0.1176      1.008
   415         OS     14     DC    O4'    415    -0.3691         16
   416         CT     14     DC    C1'    416    -0.0116      12.01
   417         H2     14     DC    H1'    417     0.1963      1.008
   418         N*     14     DC     N1    418    -0.0339      14.01
   419         CM     14     DC     C6    419    -0.0183      12.01
   420         H4     14     DC     H6    420     0.2293      1.008
   421         CM     14     DC     C5    421    -0.5222      12.01
   422         HA     14     DC     H5    422     0.1863      1.008
   423         CA     14     DC     C4    423     0.8439      12.01
   424         N2     14     DC     N4    424    -0.9773      14.01
   425          H     14     DC    H41    425     0.4314      1.008
   426          H     14     DC    H42    426     0.4314      1.008
   427         NC     14     DC     N3    427    -0.7748      14.01
   428          C     14     DC     C2    428     0.7959      12.01
   429          O     14     DC     O2    429    -0.6548         16
   430         CE     14     DC    C3'    430     0.0713     12.001
   431         H1     14     DC    H3'    431     0.0985      1.008
   432         CT     14     DC    C2'    432    -0.0854      12.01
   433         HC     14     DC   H2'1    433     0.0718      1.008
   434         HC     14     DC   H2'2    434     0.0718      1.008
   435         OS     14     DC    O3'    435    -0.5232         16   ; qtot -13.31
; residue  15 DC  rtp DC3  q -0.7
   436          P     15     DC      P    436     1.1659      30.97
   437         O2     15     DC    O1P    437    -0.7761         16
   438         O2     15     DC    O2P    438    -0.7761         16
   439         OS     15     DC    O5'    439    -0.4954         16
   440         CI     15     DC    C5'    440    -0.0069      12.01
   441         H1     15     DC   H5'1    441     0.0754      1.008
   442         H1     15     DC   H5'2    442     0.0754      1.008
   443         CT     15     DC    C4'    443     0.1629      12.01
   444         H1     15     DC    H4'    444     0.1176      1.008
   445         OS     15     DC    O4'    445    -0.3691         16
   446         CT     15     DC    C1'    446    -0.0116      12.01
   447         H2     15     DC    H1'    447     0.1963      1.008
   448         N*     15     DC     N1    448    -0.0339      14.01
   449         CM     15     DC     C6    449    -0.0183      12.01
   450         H4     15     DC     H6    450     0.2293      1.008
   451         CM     15     DC     C5    451    -0.5222      12.01
   452         HA     15     DC     H5    452     0.1863      1.008
   453         CA     15     DC     C4    453     0.8439      12.01
   454         N2     15     DC     N4    454    -0.9773      14.01
   455          H     15     DC    H41    455     0.4314      1.008
   456          H     15     DC    H42    456     0.4314      1.008
   457         NC     15     DC     N3    457    -0.7748      14.01
   458          C     15     DC     C2    458     0.7959      12.01
   459          O     15     DC     O2    459    -0.6548         16
   460         CE     15     DC    C3'    460     0.0713     12.001
   461         H1     15     DC    H3'    461     0.0985      1.008
   462         CT     15     DC    C2'    462    -0.0854      12.01
   463         HC     15     DC   H2'1    463     0.0718      1.008
   464         HC     15     DC   H2'2    464     0.0718      1.008
   465         OH     15     DC    O3'    465    -0.6549         16
   466         HO     15     DC    H3T    466     0.4396      1.008   ; qtot -14

[ bonds ]
;  ai    aj funct            c0            c1            c2            c3
    1     2     1 
    1     3     1 
    3     4     1 
    3     5     1 
    3     6     1 
    6     7     1 
    6     8     1 
    6    23     1 
    8     9     1 
    9    10     1 
    9    11     1 
    9    25     1 
   11    12     1 
   11    21     1 
   12    13     1 
   12    14     1 
   14    15     1 
   14    16     1 
   16    17     1 
   16    20     1 
   17    18     1 
   17    19     1 
   20    21     1 
   21    22     1 
   23    24     1 
   23    25     1 
   23    28     1 
   25    26     1 
   25    27     1 
   28    29     1 
   29    30     1 
   29    31     1 
   29    32     1 
   32    33     1 
   33    34     1 
   33    35     1 
   33    36     1 
   36    37     1 
   36    38     1 
   36    55     1 
   38    39     1 
   39    40     1 
   39    41     1 
   39    57     1 
   41    42     1 
   41    53     1 
   42    43     1 
   42    44     1 
   44    45     1 
   44    49     1 
   45    46     1 
   45    47     1 
   45    48     1 
   49    50     1 
   49    51     1 
   51    52     1 
   51    53     1 
   53    54     1 
   55    56     1 
   55    57     1 
   55    60     1 
   57    58     1 
   57    59     1 
   60    61     1 
   61    62     1 
   61    63     1 
   61    64     1 
   64    65     1 
   65    66     1 
   65    67     1 
   65    68     1 
   68    69     1 
   68    70     1 
   68    88     1 
   70    71     1 
   71    72     1 
   71    73     1 
   71    90     1 
   73    74     1 
   73    87     1 
   74    75     1 
   74    76     1 
   76    77     1 
   77    78     1 
   77    87     1 
   78    79     1 
   78    80     1 
   80    81     1 
   80    82     1 
   82    83     1 
   82    86     1 
   83    84     1 
   83    85     1 
   86    87     1 
   88    89     1 
   88    90     1 
   88    93     1 
   90    91     1 
   90    92     1 
   93    94     1 
   94    95     1 
   94    96     1 
   94    97     1 
   97    98     1 
   98    99     1 
   98   100     1 
   98   101     1 
  101   102     1 
  101   103     1 
  101   120     1 
  103   104     1 
  104   105     1 
  104   106     1 
  104   122     1 
  106   107     1 
  106   119     1 
  107   108     1 
  107   109     1 
  109   110     1 
  110   111     1 
  110   119     1 
  111   112     1 
  111   115     1 
  112   113     1 
  112   114     1 
  115   116     1 
  116   117     1 
  116   118     1 
  118   119     1 
  120   121     1 
  120   122     1 
  120   125     1 
  122   123     1 
  122   124     1 
  125   126     1 
  126   127     1 
  126   128     1 
  126   129     1 
  129   130     1 
  130   131     1 
  130   132     1 
  130   133     1 
  133   134     1 
  133   135     1 
  133   152     1 
  135   136     1 
  136   137     1 
  136   138     1 
  136   154     1 
  138   139     1 
  138   151     1 
  139   140     1 
  139   141     1 
  141   142     1 
  142   143     1 
  142   151     1 
  143   144     1 
  143   147     1 
  144   145     1 
  144   146     1 
  147   148     1 
  148   149     1 
  148   150     1 
  150   151     1 
  152   153     1 
  152   154     1 
  152   157     1 
  154   155     1 
  154   156     1 
  157   158     1 
  158   159     1 
  158   160     1 
  158   161     1 
  161   162     1 
  162   163     1 
  162   164     1 
  162   165     1 
  165   166     1 
  165   167     1 
  165   182     1 
  167   168     1 
  168   169     1 
  168   170     1 
  168   184     1 
  170   171     1 
  170   180     1 
  171   172     1 
  171   173     1 
  173   174     1 
  173   175     1 
  175   176     1 
  175   179     1 
  176   177     1 
  176   178     1 
  179   180     1 
  180   181     1 
  182   183     1 
  182   184     1 
  182   187     1 
  184   185     1 
  184   186     1 
  187   188     1 
  188   189     1 
  188   190     1 
  188   191     1 
  191   192     1 
  192   193     1 
  192   194     1 
  192   195     1 
  195   196     1 
  195   197     1 
  195   214     1 
  197   198     1 
  198   199     1 
  198   200     1 
  198   216     1 
  200   201     1 
  200   213     1 
  201   202     1 
  201   203     1 
  203   204     1 
  204   205     1 
  204   213     1 
  205   206     1 
  205   209     1 
  206   207     1 
  206   208     1 
  209   210     1 
  210   211     1 
  210   212     1 
  212   213     1 
  214   215     1 
  214   216     1 
  214   219     1 
  216   217     1 
  216   218     1 
  219   220     1 
  220   221     1 
  220   222     1 
  220   223     1 
  223   224     1 
  224   225     1 
  224   226     1 
  224   227     1 
  227   228     1 
  227   229     1 
  227   246     1 
  229   230     1 
  230   231     1 
  230   232     1 
  230   248     1 
  232   233     1 
  232   245     1 
  233   234     1 
  233   235     1 
  235   236     1 
  236   237     1 
  236   245     1 
  237   238     1 
  237   241     1 
  238   239     1 
  238   240     1 
  241   242     1 
  242   243     1 
  242   244     1 
  244   245     1 
  246   247     1 
  246   248     1 
  246   251     1 
  248   249     1 
  248   250     1 
  251   252     1 
  252   253     1 
  252   254     1 
  252   255     1 
  255   256     1 
  256   257     1 
  256   258     1 
  256   259     1 
  259   260     1 
  259   261     1 
  259   278     1 
  261   262     1 
  262   263     1 
  262   264     1 
  262   280     1 
  264   265     1 
  264   276     1 
  265   266     1 
  265   267     1 
  267   268     1 
  267   272     1 
  268   269     1 
  268   270     1 
  268   271     1 
  272   273     1 
  272   274     1 
  274   275     1 
  274   276     1 
  276   277     1 
  278   279     1 
  278   280     1 
  278   283     1 
  280   281     1 
  280   282     1 
  283   284     1 
  284   285     1 
  284   286     1 
  284   287     1 
  287   288     1 
  288   289     1 
  288   290     1 
  288   291     1 
  291   292     1 
  291   293     1 
  291   308     1 
  293   294     1 
  294   295     1 
  294   296     1 
  294   310     1 
  296   297     1 
  296   306     1 
  297   298     1 
  297   299     1 
  299   300     1 
  299   301     1 
  301   302     1 
  301   305     1 
  302   303     1 
  302   304     1 
  305   306     1 
  306   307     1 
  308   309     1 
  308   310     1 
  308   313     1 
  310   311     1 
  310   312     1 
  313   314     1 
  314   315     1 
  314   316     1 
  314   317     1 
  317   318     1 
  318   319     1 
  318   320     1 
  318   321     1 
  321   322     1 
  321   323     1 
  321   340     1 
  323   324     1 
  324   325     1 
  324   326     1 
  324   342     1 
  326   327     1 
  326   339     1 
  327   328     1 
  327   329     1 
  329   330     1 
  330   331     1 
  330   339     1 
  331   332     1 
  331   335     1 
  332   333     1 
  332   334     1 
  335   336     1 
  336   337     1 
  336   338     1 
  338   339     1 
  340   341     1 
  340   342     1 
  340   345     1 
  342   343     1 
  342   344     1 
  345   346     1 
  346   347     1 
  346   348     1 
  346   349     1 
  349   350     1 
  350   351     1 
  350   352     1 
  350   353     1 
  353   354     1 
  353   355     1 
  353   370     1 
  355   356     1 
  356   357     1 
  356   358     1 
  356   372     1 
  358   359     1 
  358   368     1 
  359   360     1 
  359   361     1 
  361   362     1 
  361   363     1 
  363   364     1 
  363   367     1 
  364   365     1 
  364   366     1 
  367   368     1 
  368   369     1 
  370   371     1 
  370   372     1 
  370   375     1 
  372   373     1 
  372   374     1 
  375   376     1 
  376   377     1 
  376   378     1 
  376   379     1 
  379   380     1 
  380   381     1 
  380   382     1 
  380   383     1 
  383   384     1 
  383   385     1 
  383   400     1 
  385   386     1 
  386   387     1 
  386   388     1 
  386   402     1 
  388   389     1 
  388   398     1 
  389   390     1 
  389   391     1 
  391   392     1 
  391   393     1 
  393   394     1 
  393   397     1 
  394   395     1 
  394   396     1 
  397   398     1 
  398   399     1 
  400   401     1 
  400   402     1 
  400   405     1 
  402   403     1 
  402   404     1 
  405   406     1 
  406   407     1 
  406   408     1 
  406   409     1 
  409   410     1 
  410   411     1 
  410   412     1 
  410   413     1 
  413   414     1 
  413   415     1 
  413   430     1 
  415   416     1 
  416   417     1 
  416   418     1 
  416   432     1 
  418   419     1 
  418   428     1 
  419   420     1 
  419   421     1 
  421   422     1 
  421   423     1 
  423   424     1 
  423   427     1 
  424   425     1 
  424   426     1 
  427   428     1 
  428   429     1 
  430   431     1 
  430   432     1 
  430   435     1 
  432   433     1 
  432   434     1 
  435   436     1 
  436   437     1 
  436   438     1 
  436   439     1 
  439   440     1 
  440   441     1 
  440   442     1 
  440   443     1 
  443   444     1 
  443   445     1 
  443   460     1 
  445   446     1 
  446   447     1 
  446   448     1 
  446   462     1 
  448   449     1 
  448   458     1 
  449   450     1 
  449   451     1 
  451   452     1 
  451   453     1 
  453   454     1 
  453   457     1 
  454   455     1 
  454   456     1 
  457   458     1 
  458   459     1 
  460   461     1 
  460   462     1 
  460   465     1 
  462   463     1 
  462   464     1 
  465   466     1 

[ pairs ]
;  ai    aj funct            c0            c1            c2            c3
    1     7     1 
    1     8     1 
    1    23     1 
    2     4     1 
    2     5     1 
    2     6     1 
    3     9     1 
    3    24     1 
    3    25     1 
    3    28     1 
    4     7     1 
    4     8     1 
    4    23     1 
    5     7     1 
    5     8     1 
    5    23     1 
    6    10     1 
    6    11     1 
    6    26     1 
    6    27     1 
    6    29     1 
    7     9     1 
    7    24     1 
    7    25     1 
    7    28     1 
    8    12     1 
    8    21     1 
    8    24     1 
    8    26     1 
    8    27     1 
    8    28     1 
    9    13     1 
    9    14     1 
    9    20     1 
    9    22     1 
    9    24     1 
    9    28     1 
   10    12     1 
   10    21     1 
   10    23     1 
   10    26     1 
   10    27     1 
   11    15     1 
   11    16     1 
   11    23     1 
   11    26     1 
   11    27     1 
   12    17     1 
   12    20     1 
   12    22     1 
   12    25     1 
   13    15     1 
   13    16     1 
   13    21     1 
   14    18     1 
   14    19     1 
   14    21     1 
   15    17     1 
   15    20     1 
   16    22     1 
   17    21     1 
   18    20     1 
   19    20     1 
   21    25     1 
   23    30     1 
   23    31     1 
   23    32     1 
   24    26     1 
   24    27     1 
   24    29     1 
   25    29     1 
   26    28     1 
   27    28     1 
   28    33     1 
   29    34     1 
   29    35     1 
   29    36     1 
   30    33     1 
   31    33     1 
   32    37     1 
   32    38     1 
   32    55     1 
   33    39     1 
   33    56     1 
   33    57     1 
   33    60     1 
   34    37     1 
   34    38     1 
   34    55     1 
   35    37     1 
   35    38     1 
   35    55     1 
   36    40     1 
   36    41     1 
   36    58     1 
   36    59     1 
   36    61     1 
   37    39     1 
   37    56     1 
   37    57     1 
   37    60     1 
   38    42     1 
   38    53     1 
   38    56     1 
   38    58     1 
   38    59     1 
   38    60     1 
   39    43     1 
   39    44     1 
   39    51     1 
   39    54     1 
   39    56     1 
   39    60     1 
   40    42     1 
   40    53     1 
   40    55     1 
   40    58     1 
   40    59     1 
   41    45     1 
   41    49     1 
   41    52     1 
   41    55     1 
   41    58     1 
   41    59     1 
   42    46     1 
   42    47     1 
   42    48     1 
   42    50     1 
   42    51     1 
   42    54     1 
   42    57     1 
   43    45     1 
   43    49     1 
   43    53     1 
   44    52     1 
   44    53     1 
   45    50     1 
   45    51     1 
   46    49     1 
   47    49     1 
   48    49     1 
   49    54     1 
   50    52     1 
   50    53     1 
   52    54     1 
   53    57     1 
   55    62     1 
   55    63     1 
   55    64     1 
   56    58     1 
   56    59     1 
   56    61     1 
   57    61     1 
   58    60     1 
   59    60     1 
   60    65     1 
   61    66     1 
   61    67     1 
   61    68     1 
   62    65     1 
   63    65     1 
   64    69     1 
   64    70     1 
   64    88     1 
   65    71     1 
   65    89     1 
   65    90     1 
   65    93     1 
   66    69     1 
   66    70     1 
   66    88     1 
   67    69     1 
   67    70     1 
   67    88     1 
   68    72     1 
   68    73     1 
   68    91     1 
   68    92     1 
   68    94     1 
   69    71     1 
   69    89     1 
   69    90     1 
   69    93     1 
   70    74     1 
   70    87     1 
   70    89     1 
   70    91     1 
   70    92     1 
   70    93     1 
   71    75     1 
   71    76     1 
   71    77     1 
   71    86     1 
   71    89     1 
   71    93     1 
   72    74     1 
   72    87     1 
   72    88     1 
   72    91     1 
   72    92     1 
   73    78     1 
   73    82     1 
   73    88     1 
   73    91     1 
   73    92     1 
   74    78     1 
   74    86     1 
   74    90     1 
   75    77     1 
   75    87     1 
   76    79     1 
   76    80     1 
   76    86     1 
   77    81     1 
   77    82     1 
   78    83     1 
   78    86     1 
   79    81     1 
   79    82     1 
   79    87     1 
   80    84     1 
   80    85     1 
   80    87     1 
   81    83     1 
   81    86     1 
   83    87     1 
   84    86     1 
   85    86     1 
   87    90     1 
   88    95     1 
   88    96     1 
   88    97     1 
   89    91     1 
   89    92     1 
   89    94     1 
   90    94     1 
   91    93     1 
   92    93     1 
   93    98     1 
   94    99     1 
   94   100     1 
   94   101     1 
   95    98     1 
   96    98     1 
   97   102     1 
   97   103     1 
   97   120     1 
   98   104     1 
   98   121     1 
   98   122     1 
   98   125     1 
   99   102     1 
   99   103     1 
   99   120     1 
  100   102     1 
  100   103     1 
  100   120     1 
  101   105     1 
  101   106     1 
  101   123     1 
  101   124     1 
  101   126     1 
  102   104     1 
  102   121     1 
  102   122     1 
  102   125     1 
  103   107     1 
  103   119     1 
  103   121     1 
  103   123     1 
  103   124     1 
  103   125     1 
  104   108     1 
  104   109     1 
  104   110     1 
  104   118     1 
  104   121     1 
  104   125     1 
  105   107     1 
  105   119     1 
  105   120     1 
  105   123     1 
  105   124     1 
  106   111     1 
  106   116     1 
  106   120     1 
  106   123     1 
  106   124     1 
  107   111     1 
  107   118     1 
  107   122     1 
  108   110     1 
  108   119     1 
  109   112     1 
  109   115     1 
  109   118     1 
  110   113     1 
  110   114     1 
  110   116     1 
  111   117     1 
  111   118     1 
  112   116     1 
  112   119     1 
  113   115     1 
  114   115     1 
  115   119     1 
  117   119     1 
  119   122     1 
  120   127     1 
  120   128     1 
  120   129     1 
  121   123     1 
  121   124     1 
  121   126     1 
  122   126     1 
  123   125     1 
  124   125     1 
  125   130     1 
  126   131     1 
  126   132     1 
  126   133     1 
  127   130     1 
  128   130     1 
  129   134     1 
  129   135     1 
  129   152     1 
  130   136     1 
  130   153     1 
  130   154     1 
  130   157     1 
  131   134     1 
  131   135     1 
  131   152     1 
  132   134     1 
  132   135     1 
  132   152     1 
  133   137     1 
  133   138     1 
  133   155     1 
  133   156     1 
  133   158     1 
  134   136     1 
  134   153     1 
  134   154     1 
  134   157     1 
  135   139     1 
  135   151     1 
  135   153     1 
  135   155     1 
  135   156     1 
  135   157     1 
  136   140     1 
  136   141     1 
  136   142     1 
  136   150     1 
  136   153     1 
  136   157     1 
  137   139     1 
  137   151     1 
  137   152     1 
  137   155     1 
  137   156     1 
  138   143     1 
  138   148     1 
  138   152     1 
  138   155     1 
  138   156     1 
  139   143     1 
  139   150     1 
  139   154     1 
  140   142     1 
  140   151     1 
  141   144     1 
  141   147     1 
  141   150     1 
  142   145     1 
  142   146     1 
  142   148     1 
  143   149     1 
  143   150     1 
  144   148     1 
  144   151     1 
  145   147     1 
  146   147     1 
  147   151     1 
  149   151     1 
  151   154     1 
  152   159     1 
  152   160     1 
  152   161     1 
  153   155     1 
  153   156     1 
  153   158     1 
  154   158     1 
  155   157     1 
  156   157     1 
  157   162     1 
  158   163     1 
  158   164     1 
  158   165     1 
  159   162     1 
  160   162     1 
  161   166     1 
  161   167     1 
  161   182     1 
  162   168     1 
  162   183     1 
  162   184     1 
  162   187     1 
  163   166     1 
  163   167     1 
  163   182     1 
  164   166     1 
  164   167     1 
  164   182     1 
  165   169     1 
  165   170     1 
  165   185     1 
  165   186     1 
  165   188     1 
  166   168     1 
  166   183     1 
  166   184     1 
  166   187     1 
  167   171     1 
  167   180     1 
  167   183     1 
  167   185     1 
  167   186     1 
  167   187     1 
  168   172     1 
  168   173     1 
  168   179     1 
  168   181     1 
  168   183     1 
  168   187     1 
  169   171     1 
  169   180     1 
  169   182     1 
  169   185     1 
  169   186     1 
  170   174     1 
  170   175     1 
  170   182     1 
  170   185     1 
  170   186     1 
  171   176     1 
  171   179     1 
  171   181     1 
  171   184     1 
  172   174     1 
  172   175     1 
  172   180     1 
  173   177     1 
  173   178     1 
  173   180     1 
  174   176     1 
  174   179     1 
  175   181     1 
  176   180     1 
  177   179     1 
  178   179     1 
  180   184     1 
  182   189     1 
  182   190     1 
  182   191     1 
  183   185     1 
  183   186     1 
  183   188     1 
  184   188     1 
  185   187     1 
  186   187     1 
  187   192     1 
  188   193     1 
  188   194     1 
  188   195     1 
  189   192     1 
  190   192     1 
  191   196     1 
  191   197     1 
  191   214     1 
  192   198     1 
  192   215     1 
  192   216     1 
  192   219     1 
  193   196     1 
  193   197     1 
  193   214     1 
  194   196     1 
  194   197     1 
  194   214     1 
  195   199     1 
  195   200     1 
  195   217     1 
  195   218     1 
  195   220     1 
  196   198     1 
  196   215     1 
  196   216     1 
  196   219     1 
  197   201     1 
  197   213     1 
  197   215     1 
  197   217     1 
  197   218     1 
  197   219     1 
  198   202     1 
  198   203     1 
  198   204     1 
  198   212     1 
  198   215     1 
  198   219     1 
  199   201     1 
  199   213     1 
  199   214     1 
  199   217     1 
  199   218     1 
  200   205     1 
  200   210     1 
  200   214     1 
  200   217     1 
  200   218     1 
  201   205     1 
  201   212     1 
  201   216     1 
  202   204     1 
  202   213     1 
  203   206     1 
  203   209     1 
  203   212     1 
  204   207     1 
  204   208     1 
  204   210     1 
  205   211     1 
  205   212     1 
  206   210     1 
  206   213     1 
  207   209     1 
  208   209     1 
  209   213     1 
  211   213     1 
  213   216     1 
  214   221     1 
  214   222     1 
  214   223     1 
  215   217     1 
  215   218     1 
  215   220     1 
  216   220     1 
  217   219     1 
  218   219     1 
  219   224     1 
  220   225     1 
  220   226     1 
  220   227     1 
  221   224     1 
  222   224     1 
  223   228     1 
  223   229     1 
  223   246     1 
  224   230     1 
  224   247     1 
  224   248     1 
  224   251     1 
  225   228     1 
  225   229     1 
  225   246     1 
  226   228     1 
  226   229     1 
  226   246     1 
  227   231     1 
  227   232     1 
  227   249     1 
  227   250     1 
  227   252     1 
  228   230     1 
  228   247     1 
  228   248     1 
  228   251     1 
  229   233     1 
  229   245     1 
  229   247     1 
  229   249     1 
  229   250     1 
  229   251     1 
  230   234     1 
  230   235     1 
  230   236     1 
  230   244     1 
  230   247     1 
  230   251     1 
  231   233     1 
  231   245     1 
  231   246     1 
  231   249     1 
  231   250     1 
  232   237     1 
  232   242     1 
  232   246     1 
  232   249     1 
  232   250     1 
  233   237     1 
  233   244     1 
  233   248     1 
  234   236     1 
  234   245     1 
  235   238     1 
  235   241     1 
  235   244     1 
  236   239     1 
  236   240     1 
  236   242     1 
  237   243     1 
  237   244     1 
  238   242     1 
  238   245     1 
  239   241     1 
  240   241     1 
  241   245     1 
  243   245     1 
  245   248     1 
  246   253     1 
  246   254     1 
  246   255     1 
  247   249     1 
  247   250     1 
  247   252     1 
  248   252     1 
  249   251     1 
  250   251     1 
  251   256     1 
  252   257     1 
  252   258     1 
  252   259     1 
  253   256     1 
  254   256     1 
  255   260     1 
  255   261     1 
  255   278     1 
  256   262     1 
  256   279     1 
  256   280     1 
  256   283     1 
  257   260     1 
  257   261     1 
  257   278     1 
  258   260     1 
  258   261     1 
  258   278     1 
  259   263     1 
  259   264     1 
  259   281     1 
  259   282     1 
  259   284     1 
  260   262     1 
  260   279     1 
  260   280     1 
  260   283     1 
  261   265     1 
  261   276     1 
  261   279     1 
  261   281     1 
  261   282     1 
  261   283     1 
  262   266     1 
  262   267     1 
  262   274     1 
  262   277     1 
  262   279     1 
  262   283     1 
  263   265     1 
  263   276     1 
  263   278     1 
  263   281     1 
  263   282     1 
  264   268     1 
  264   272     1 
  264   275     1 
  264   278     1 
  264   281     1 
  264   282     1 
  265   269     1 
  265   270     1 
  265   271     1 
  265   273     1 
  265   274     1 
  265   277     1 
  265   280     1 
  266   268     1 
  266   272     1 
  266   276     1 
  267   275     1 
  267   276     1 
  268   273     1 
  268   274     1 
  269   272     1 
  270   272     1 
  271   272     1 
  272   277     1 
  273   275     1 
  273   276     1 
  275   277     1 
  276   280     1 
  278   285     1 
  278   286     1 
  278   287     1 
  279   281     1 
  279   282     1 
  279   284     1 
  280   284     1 
  281   283     1 
  282   283     1 
  283   288     1 
  284   289     1 
  284   290     1 
  284   291     1 
  285   288     1 
  286   288     1 
  287   292     1 
  287   293     1 
  287   308     1 
  288   294     1 
  288   309     1 
  288   310     1 
  288   313     1 
  289   292     1 
  289   293     1 
  289   308     1 
  290   292     1 
  290   293     1 
  290   308     1 
  291   295     1 
  291   296     1 
  291   311     1 
  291   312     1 
  291   314     1 
  292   294     1 
  292   309     1 
  292   310     1 
  292   313     1 
  293   297     1 
  293   306     1 
  293   309     1 
  293   311     1 
  293   312     1 
  293   313     1 
  294   298     1 
  294   299     1 
  294   305     1 
  294   307     1 
  294   309     1 
  294   313     1 
  295   297     1 
  295   306     1 
  295   308     1 
  295   311     1 
  295   312     1 
  296   300     1 
  296   301     1 
  296   308     1 
  296   311     1 
  296   312     1 
  297   302     1 
  297   305     1 
  297   307     1 
  297   310     1 
  298   300     1 
  298   301     1 
  298   306     1 
  299   303     1 
  299   304     1 
  299   306     1 
  300   302     1 
  300   305     1 
  301   307     1 
  302   306     1 
  303   305     1 
  304   305     1 
  306   310     1 
  308   315     1 
  308   316     1 
  308   317     1 
  309   311     1 
  309   312     1 
  309   314     1 
  310   314     1 
  311   313     1 
  312   313     1 
  313   318     1 
  314   319     1 
  314   320     1 
  314   321     1 
  315   318     1 
  316   318     1 
  317   322     1 
  317   323     1 
  317   340     1 
  318   324     1 
  318   341     1 
  318   342     1 
  318   345     1 
  319   322     1 
  319   323     1 
  319   340     1 
  320   322     1 
  320   323     1 
  320   340     1 
  321   325     1 
  321   326     1 
  321   343     1 
  321   344     1 
  321   346     1 
  322   324     1 
  322   341     1 
  322   342     1 
  322   345     1 
  323   327     1 
  323   339     1 
  323   341     1 
  323   343     1 
  323   344     1 
  323   345     1 
  324   328     1 
  324   329     1 
  324   330     1 
  324   338     1 
  324   341     1 
  324   345     1 
  325   327     1 
  325   339     1 
  325   340     1 
  325   343     1 
  325   344     1 
  326   331     1 
  326   336     1 
  326   340     1 
  326   343     1 
  326   344     1 
  327   331     1 
  327   338     1 
  327   342     1 
  328   330     1 
  328   339     1 
  329   332     1 
  329   335     1 
  329   338     1 
  330   333     1 
  330   334     1 
  330   336     1 
  331   337     1 
  331   338     1 
  332   336     1 
  332   339     1 
  333   335     1 
  334   335     1 
  335   339     1 
  337   339     1 
  339   342     1 
  340   347     1 
  340   348     1 
  340   349     1 
  341   343     1 
  341   344     1 
  341   346     1 
  342   346     1 
  343   345     1 
  344   345     1 
  345   350     1 
  346   351     1 
  346   352     1 
  346   353     1 
  347   350     1 
  348   350     1 
  349   354     1 
  349   355     1 
  349   370     1 
  350   356     1 
  350   371     1 
  350   372     1 
  350   375     1 
  351   354     1 
  351   355     1 
  351   370     1 
  352   354     1 
  352   355     1 
  352   370     1 
  353   357     1 
  353   358     1 
  353   373     1 
  353   374     1 
  353   376     1 
  354   356     1 
  354   371     1 
  354   372     1 
  354   375     1 
  355   359     1 
  355   368     1 
  355   371     1 
  355   373     1 
  355   374     1 
  355   375     1 
  356   360     1 
  356   361     1 
  356   367     1 
  356   369     1 
  356   371     1 
  356   375     1 
  357   359     1 
  357   368     1 
  357   370     1 
  357   373     1 
  357   374     1 
  358   362     1 
  358   363     1 
  358   370     1 
  358   373     1 
  358   374     1 
  359   364     1 
  359   367     1 
  359   369     1 
  359   372     1 
  360   362     1 
  360   363     1 
  360   368     1 
  361   365     1 
  361   366     1 
  361   368     1 
  362   364     1 
  362   367     1 
  363   369     1 
  364   368     1 
  365   367     1 
  366   367     1 
  368   372     1 
  370   377     1 
  370   378     1 
  370   379     1 
  371   373     1 
  371   374     1 
  371   376     1 
  372   376     1 
  373   375     1 
  374   375     1 
  375   380     1 
  376   381     1 
  376   382     1 
  376   383     1 
  377   380     1 
  378   380     1 
  379   384     1 
  379   385     1 
  379   400     1 
  380   386     1 
  380   401     1 
  380   402     1 
  380   405     1 
  381   384     1 
  381   385     1 
  381   400     1 
  382   384     1 
  382   385     1 
  382   400     1 
  383   387     1 
  383   388     1 
  383   403     1 
  383   404     1 
  383   406     1 
  384   386     1 
  384   401     1 
  384   402     1 
  384   405     1 
  385   389     1 
  385   398     1 
  385   401     1 
  385   403     1 
  385   404     1 
  385   405     1 
  386   390     1 
  386   391     1 
  386   397     1 
  386   399     1 
  386   401     1 
  386   405     1 
  387   389     1 
  387   398     1 
  387   400     1 
  387   403     1 
  387   404     1 
  388   392     1 
  388   393     1 
  388   400     1 
  388   403     1 
  388   404     1 
  389   394     1 
  389   397     1 
  389   399     1 
  389   402     1 
  390   392     1 
  390   393     1 
  390   398     1 
  391   395     1 
  391   396     1 
  391   398     1 
  392   394     1 
  392   397     1 
  393   399     1 
  394   398     1 
  395   397     1 
  396   397     1 
  398   402     1 
  400   407     1 
  400   408     1 
  400   409     1 
  401   403     1 
  401   404     1 
  401   406     1 
  402   406     1 
  403   405     1 
  404   405     1 
  405   410     1 
  406   411     1 
  406   412     1 
  406   413     1 
  407   410     1 
  408   410     1 
  409   414     1 
  409   415     1 
  409   430     1 
  410   416     1 
  410   431     1 
  410   432     1 
  410   435     1 
  411   414     1 
  411   415     1 
  411   430     1 
  412   414     1 
  412   415     1 
  412   430     1 
  413   417     1 
  413   418     1 
  413   433     1 
  413   434     1 
  413   436     1 
  414   416     1 
  414   431     1 
  414   432     1 
  414   435     1 
  415   419     1 
  415   428     1 
  415   431     1 
  415   433     1 
  415   434     1 
  415   435     1 
  416   420     1 
  416   421     1 
  416   427     1 
  416   429     1 
  416   431     1 
  416   435     1 
  417   419     1 
  417   428     1 
  417   430     1 
  417   433     1 
  417   434     1 
  418   422     1 
  418   423     1 
  418   430     1 
  418   433     1 
  418   434     1 
  419   424     1 
  419   427     1 
  419   429     1 
  419   432     1 
  420   422     1 
  420   423     1 
  420   428     1 
  421   425     1 
  421   426     1 
  421   428     1 
  422   424     1 
  422   427     1 
  423   429     1 
  424   428     1 
  425   427     1 
  426   427     1 
  428   432     1 
  430   437     1 
  430   438     1 
  430   439     1 
  431   433     1 
  431   434     1 
  431   436     1 
  432   436     1 
  433   435     1 
  434   435     1 
  435   440     1 
  436   441     1 
  436   442     1 
  436   443     1 
  437   440     1 
  438   440     1 
  439   444     1 
  439   445     1 
  439   460     1 
  440   446     1 
  440   461     1 
  440   462     1 
  440   465     1 
  441   444     1 
  441   445     1 
  441   460     1 
  442   444     1 
  442   445     1 
  442   460     1 
  443   447     1 
  443   448     1 
  443   463     1 
  443   464     1 
  443   466     1 
  444   446     1 
  444   461     1 
  444   462     1 
  444   465     1 
  445   449     1 
  445   458     1 
  445   461     1 
  445   463     1 
  445   464     1 
  445   465     1 
  446   450     1 
  446   451     1 
  446   457     1 
  446   459     1 
  446   461     1 
  446   465     1 
  447   449     1 
  447   458     1 
  447   460     1 
  447   463     1 
  447   464     1 
  448   452     1 
  448   453     1 
  448   460     1 
  448   463     1 
  448   464     1 
  449   454     1 
  449   457     1 
  449   459     1 
  449   462     1 
  450   452     1 
  450   453     1 
  450   458     1 
  451   455     1 
  451   456     1 
  451   458     1 
  452   454     1 
  452   457     1 
  453   459     1 
  454   458     1 
  455   457     1 
  456   457     1 
  458   462     1 
  461   463     1 
  461   464     1 
  461   466     1 
  462   466     1 
  463   465     1 
  464   465     1 

[ angles ]
;  ai    aj    ak funct            c0            c1            c2            c3
    2     1     3     1 
    1     3     4     1 
    1     3     5     1 
    1     3     6     1 
    4     3     5     1 
    4     3     6     1 
    5     3     6     1 
    3     6     7     1 
    3     6     8     1 
    3     6    23     1 
    7     6     8     1 
    7     6    23     1 
    8     6    23     1 
    6     8     9     1 
    8     9    10     1 
    8     9    11     1 
    8     9    25     1 
   10     9    11     1 
   10     9    25     1 
   11     9    25     1 
    9    11    12     1 
    9    11    21     1 
   12    11    21     1 
   11    12    13     1 
   11    12    14     1 
   13    12    14     1 
   12    14    15     1 
   12    14    16     1 
   15    14    16     1 
   14    16    17     1 
   14    16    20     1 
   17    16    20     1 
   16    17    18     1 
   16    17    19     1 
   18    17    19     1 
   16    20    21     1 
   11    21    20     1 
   11    21    22     1 
   20    21    22     1 
    6    23    24     1 
    6    23    25     1 
    6    23    28     1 
   24    23    25     1 
   24    23    28     1 
   25    23    28     1 
    9    25    23     1 
    9    25    26     1 
    9    25    27     1 
   23    25    26     1 
   23    25    27     1 
   26    25    27     1 
   23    28    29     1 
   28    29    30     1 
   28    29    31     1 
   28    29    32     1 
   30    29    31     1 
   30    29    32     1 
   31    29    32     1 
   29    32    33     1 
   32    33    34     1 
   32    33    35     1 
   32    33    36     1 
   34    33    35     1 
   34    33    36     1 
   35    33    36     1 
   33    36    37     1 
   33    36    38     1 
   33    36    55     1 
   37    36    38     1 
   37    36    55     1 
   38    36    55     1 
   36    38    39     1 
   38    39    40     1 
   38    39    41     1 
   38    39    57     1 
   40    39    41     1 
   40    39    57     1 
   41    39    57     1 
   39    41    42     1 
   39    41    53     1 
   42    41    53     1 
   41    42    43     1 
   41    42    44     1 
   43    42    44     1 
   42    44    45     1 
   42    44    49     1 
   45    44    49     1 
   44    45    46     1 
   44    45    47     1 
   44    45    48     1 
   46    45    47     1 
   46    45    48     1 
   47    45    48     1 
   44    49    50     1 
   44    49    51     1 
   50    49    51     1 
   49    51    52     1 
   49    51    53     1 
   52    51    53     1 
   41    53    51     1 
   41    53    54     1 
   51    53    54     1 
   36    55    56     1 
   36    55    57     1 
   36    55    60     1 
   56    55    57     1 
   56    55    60     1 
   57    55    60     1 
   39    57    55     1 
   39    57    58     1 
   39    57    59     1 
   55    57    58     1 
   55    57    59     1 
   58    57    59     1 
   55    60    61     1 
   60    61    62     1 
   60    61    63     1 
   60    61    64     1 
   62    61    63     1 
   62    61    64     1 
   63    61    64     1 
   61    64    65     1 
   64    65    66     1 
   64    65    67     1 
   64    65    68     1 
   66    65    67     1 
   66    65    68     1 
   67    65    68     1 
   65    68    69     1 
   65    68    70     1 
   65    68    88     1 
   69    68    70     1 
   69    68    88     1 
   70    68    88     1 
   68    70    71     1 
   70    71    72     1 
   70    71    73     1 
   70    71    90     1 
   72    71    73     1 
   72    71    90     1 
   73    71    90     1 
   71    73    74     1 
   71    73    87     1 
   74    73    87     1 
   73    74    75     1 
   73    74    76     1 
   75    74    76     1 
   74    76    77     1 
   76    77    78     1 
   76    77    87     1 
   78    77    87     1 
   77    78    79     1 
   77    78    80     1 
   79    78    80     1 
   78    80    81     1 
   78    80    82     1 
   81    80    82     1 
   80    82    83     1 
   80    82    86     1 
   83    82    86     1 
   82    83    84     1 
   82    83    85     1 
   84    83    85     1 
   82    86    87     1 
   73    87    77     1 
   73    87    86     1 
   77    87    86     1 
   68    88    89     1 
   68    88    90     1 
   68    88    93     1 
   89    88    90     1 
   89    88    93     1 
   90    88    93     1 
   71    90    88     1 
   71    90    91     1 
   71    90    92     1 
   88    90    91     1 
   88    90    92     1 
   91    90    92     1 
   88    93    94     1 
   93    94    95     1 
   93    94    96     1 
   93    94    97     1 
   95    94    96     1 
   95    94    97     1 
   96    94    97     1 
   94    97    98     1 
   97    98    99     1 
   97    98   100     1 
   97    98   101     1 
   99    98   100     1 
   99    98   101     1 
  100    98   101     1 
   98   101   102     1 
   98   101   103     1 
   98   101   120     1 
  102   101   103     1 
  102   101   120     1 
  103   101   120     1 
  101   103   104     1 
  103   104   105     1 
  103   104   106     1 
  103   104   122     1 
  105   104   106     1 
  105   104   122     1 
  106   104   122     1 
  104   106   107     1 
  104   106   119     1 
  107   106   119     1 
  106   107   108     1 
  106   107   109     1 
  108   107   109     1 
  107   109   110     1 
  109   110   111     1 
  109   110   119     1 
  111   110   119     1 
  110   111   112     1 
  110   111   115     1 
  112   111   115     1 
  111   112   113     1 
  111   112   114     1 
  113   112   114     1 
  111   115   116     1 
  115   116   117     1 
  115   116   118     1 
  117   116   118     1 
  116   118   119     1 
  106   119   110     1 
  106   119   118     1 
  110   119   118     1 
  101   120   121     1 
  101   120   122     1 
  101   120   125     1 
  121   120   122     1 
  121   120   125     1 
  122   120   125     1 
  104   122   120     1 
  104   122   123     1 
  104   122   124     1 
  120   122   123     1 
  120   122   124     1 
  123   122   124     1 
  120   125   126     1 
  125   126   127     1 
  125   126   128     1 
  125   126   129     1 
  127   126   128     1 
  127   126   129     1 
  128   126   129     1 
  126   129   130     1 
  129   130   131     1 
  129   130   132     1 
  129   130   133     1 
  131   130   132     1 
  131   130   133     1 
  132   130   133     1 
  130   133   134     1 
  130   133   135     1 
  130   133   152     1 
  134   133   135     1 
  134   133   152     1 
  135   133   152     1 
  133   135   136     1 
  135   136   137     1 
  135   136   138     1 
  135   136   154     1 
  137   136   138     1 
  137   136   154     1 
  138   136   154     1 
  136   138   139     1 
  136   138   151     1 
  139   138   151     1 
  138   139   140     1 
  138   139   141     1 
  140   139   141     1 
  139   141   142     1 
  141   142   143     1 
  141   142   151     1 
  143   142   151     1 
  142   143   144     1 
  142   143   147     1 
  144   143   147     1 
  143   144   145     1 
  143   144   146     1 
  145   144   146     1 
  143   147   148     1 
  147   148   149     1 
  147   148   150     1 
  149   148   150     1 
  148   150   151     1 
  138   151   142     1 
  138   151   150     1 
  142   151   150     1 
  133   152   153     1 
  133   152   154     1 
  133   152   157     1 
  153   152   154     1 
  153   152   157     1 
  154   152   157     1 
  136   154   152     1 
  136   154   155     1 
  136   154   156     1 
  152   154   155     1 
  152   154   156     1 
  155   154   156     1 
  152   157   158     1 
  157   158   159     1 
  157   158   160     1 
  157   158   161     1 
  159   158   160     1 
  159   158   161     1 
  160   158   161     1 
  158   161   162     1 
  161   162   163     1 
  161   162   164     1 
  161   162   165     1 
  163   162   164     1 
  163   162   165     1 
  164   162   165     1 
  162   165   166     1 
  162   165   167     1 
  162   165   182     1 
  166   165   167     1 
  166   165   182     1 
  167   165   182     1 
  165   167   168     1 
  167   168   169     1 
  167   168   170     1 
  167   168   184     1 
  169   168   170     1 
  169   168   184     1 
  170   168   184     1 
  168   170   171     1 
  168   170   180     1 
  171   170   180     1 
  170   171   172     1 
  170   171   173     1 
  172   171   173     1 
  171   173   174     1 
  171   173   175     1 
  174   173   175     1 
  173   175   176     1 
  173   175   179     1 
  176   175   179     1 
  175   176   177     1 
  175   176   178     1 
  177   176   178     1 
  175   179   180     1 
  170   180   179     1 
  170   180   181     1 
  179   180   181     1 
  165   182   183     1 
  165   182   184     1 
  165   182   187     1 
  183   182   184     1 
  183   182   187     1 
  184   182   187     1 
  168   184   182     1 
  168   184   185     1 
  168   184   186     1 
  182   184   185     1 
  182   184   186     1 
  185   184   186     1 
  182   187   188     1 
  187   188   189     1 
  187   188   190     1 
  187   188   191     1 
  189   188   190     1 
  189   188   191     1 
  190   188   191     1 
  188   191   192     1 
  191   192   193     1 
  191   192   194     1 
  191   192   195     1 
  193   192   194     1 
  193   192   195     1 
  194   192   195     1 
  192   195   196     1 
  192   195   197     1 
  192   195   214     1 
  196   195   197     1 
  196   195   214     1 
  197   195   214     1 
  195   197   198     1 
  197   198   199     1 
  197   198   200     1 
  197   198   216     1 
  199   198   200     1 
  199   198   216     1 
  200   198   216     1 
  198   200   201     1 
  198   200   213     1 
  201   200   213     1 
  200   201   202     1 
  200   201   203     1 
  202   201   203     1 
  201   203   204     1 
  203   204   205     1 
  203   204   213     1 
  205   204   213     1 
  204   205   206     1 
  204   205   209     1 
  206   205   209     1 
  205   206   207     1 
  205   206   208     1 
  207   206   208     1 
  205   209   210     1 
  209   210   211     1 
  209   210   212     1 
  211   210   212     1 
  210   212   213     1 
  200   213   204     1 
  200   213   212     1 
  204   213   212     1 
  195   214   215     1 
  195   214   216     1 
  195   214   219     1 
  215   214   216     1 
  215   214   219     1 
  216   214   219     1 
  198   216   214     1 
  198   216   217     1 
  198   216   218     1 
  214   216   217     1 
  214   216   218     1 
  217   216   218     1 
  214   219   220     1 
  219   220   221     1 
  219   220   222     1 
  219   220   223     1 
  221   220   222     1 
  221   220   223     1 
  222   220   223     1 
  220   223   224     1 
  223   224   225     1 
  223   224   226     1 
  223   224   227     1 
  225   224   226     1 
  225   224   227     1 
  226   224   227     1 
  224   227   228     1 
  224   227   229     1 
  224   227   246     1 
  228   227   229     1 
  228   227   246     1 
  229   227   246     1 
  227   229   230     1 
  229   230   231     1 
  229   230   232     1 
  229   230   248     1 
  231   230   232     1 
  231   230   248     1 
  232   230   248     1 
  230   232   233     1 
  230   232   245     1 
  233   232   245     1 
  232   233   234     1 
  232   233   235     1 
  234   233   235     1 
  233   235   236     1 
  235   236   237     1 
  235   236   245     1 
  237   236   245     1 
  236   237   238     1 
  236   237   241     1 
  238   237   241     1 
  237   238   239     1 
  237   238   240     1 
  239   238   240     1 
  237   241   242     1 
  241   242   243     1 
  241   242   244     1 
  243   242   244     1 
  242   244   245     1 
  232   245   236     1 
  232   245   244     1 
  236   245   244     1 
  227   246   247     1 
  227   246   248     1 
  227   246   251     1 
  247   246   248     1 
  247   246   251     1 
  248   246   251     1 
  230   248   246     1 
  230   248   249     1 
  230   248   250     1 
  246   248   249     1 
  246   248   250     1 
  249   248   250     1 
  246   251   252     1 
  251   252   253     1 
  251   252   254     1 
  251   252   255     1 
  253   252   254     1 
  253   252   255     1 
  254   252   255     1 
  252   255   256     1 
  255   256   257     1 
  255   256   258     1 
  255   256   259     1 
  257   256   258     1 
  257   256   259     1 
  258   256   259     1 
  256   259   260     1 
  256   259   261     1 
  256   259   278     1 
  260   259   261     1 
  260   259   278     1 
  261   259   278     1 
  259   261   262     1 
  261   262   263     1 
  261   262   264     1 
  261   262   280     1 
  263   262   264     1 
  263   262   280     1 
  264   262   280     1 
  262   264   265     1 
  262   264   276     1 
  265   264   276     1 
  264   265   266     1 
  264   265   267     1 
  266   265   267     1 
  265   267   268     1 
  265   267   272     1 
  268   267   272     1 
  267   268   269     1 
  267   268   270     1 
  267   268   271     1 
  269   268   270     1 
  269   268   271     1 
  270   268   271     1 
  267   272   273     1 
  267   272   274     1 
  273   272   274     1 
  272   274   275     1 
  272   274   276     1 
  275   274   276     1 
  264   276   274     1 
  264   276   277     1 
  274   276   277     1 
  259   278   279     1 
  259   278   280     1 
  259   278   283     1 
  279   278   280     1 
  279   278   283     1 
  280   278   283     1 
  262   280   278     1 
  262   280   281     1 
  262   280   282     1 
  278   280   281     1 
  278   280   282     1 
  281   280   282     1 
  278   283   284     1 
  283   284   285     1 
  283   284   286     1 
  283   284   287     1 
  285   284   286     1 
  285   284   287     1 
  286   284   287     1 
  284   287   288     1 
  287   288   289     1 
  287   288   290     1 
  287   288   291     1 
  289   288   290     1 
  289   288   291     1 
  290   288   291     1 
  288   291   292     1 
  288   291   293     1 
  288   291   308     1 
  292   291   293     1 
  292   291   308     1 
  293   291   308     1 
  291   293   294     1 
  293   294   295     1 
  293   294   296     1 
  293   294   310     1 
  295   294   296     1 
  295   294   310     1 
  296   294   310     1 
  294   296   297     1 
  294   296   306     1 
  297   296   306     1 
  296   297   298     1 
  296   297   299     1 
  298   297   299     1 
  297   299   300     1 
  297   299   301     1 
  300   299   301     1 
  299   301   302     1 
  299   301   305     1 
  302   301   305     1 
  301   302   303     1 
  301   302   304     1 
  303   302   304     1 
  301   305   306     1 
  296   306   305     1 
  296   306   307     1 
  305   306   307     1 
  291   308   309     1 
  291   308   310     1 
  291   308   313     1 
  309   308   310     1 
  309   308   313     1 
  310   308   313     1 
  294   310   308     1 
  294   310   311     1 
  294   310   312     1 
  308   310   311     1 
  308   310   312     1 
  311   310   312     1 
  308   313   314     1 
  313   314   315     1 
  313   314   316     1 
  313   314   317     1 
  315   314   316     1 
  315   314   317     1 
  316   314   317     1 
  314   317   318     1 
  317   318   319     1 
  317   318   320     1 
  317   318   321     1 
  319   318   320     1 
  319   318   321     1 
  320   318   321     1 
  318   321   322     1 
  318   321   323     1 
  318   321   340     1 
  322   321   323     1 
  322   321   340     1 
  323   321   340     1 
  321   323   324     1 
  323   324   325     1 
  323   324   326     1 
  323   324   342     1 
  325   324   326     1 
  325   324   342     1 
  326   324   342     1 
  324   326   327     1 
  324   326   339     1 
  327   326   339     1 
  326   327   328     1 
  326   327   329     1 
  328   327   329     1 
  327   329   330     1 
  329   330   331     1 
  329   330   339     1 
  331   330   339     1 
  330   331   332     1 
  330   331   335     1 
  332   331   335     1 
  331   332   333     1 
  331   332   334     1 
  333   332   334     1 
  331   335   336     1 
  335   336   337     1 
  335   336   338     1 
  337   336   338     1 
  336   338   339     1 
  326   339   330     1 
  326   339   338     1 
  330   339   338     1 
  321   340   341     1 
  321   340   342     1 
  321   340   345     1 
  341   340   342     1 
  341   340   345     1 
  342   340   345     1 
  324   342   340     1 
  324   342   343     1 
  324   342   344     1 
  340   342   343     1 
  340   342   344     1 
  343   342   344     1 
  340   345   346     1 
  345   346   347     1 
  345   346   348     1 
  345   346   349     1 
  347   346   348     1 
  347   346   349     1 
  348   346   349     1 
  346   349   350     1 
  349   350   351     1 
  349   350   352     1 
  349   350   353     1 
  351   350   352     1 
  351   350   353     1 
  352   350   353     1 
  350   353   354     1 
  350   353   355     1 
  350   353   370     1 
  354   353   355     1 
  354   353   370     1 
  355   353   370     1 
  353   355   356     1 
  355   356   357     1 
  355   356   358     1 
  355   356   372     1 
  357   356   358     1 
  357   356   372     1 
  358   356   372     1 
  356   358   359     1 
  356   358   368     1 
  359   358   368     1 
  358   359   360     1 
  358   359   361     1 
  360   359   361     1 
  359   361   362     1 
  359   361   363     1 
  362   361   363     1 
  361   363   364     1 
  361   363   367     1 
  364   363   367     1 
  363   364   365     1 
  363   364   366     1 
  365   364   366     1 
  363   367   368     1 
  358   368   367     1 
  358   368   369     1 
  367   368   369     1 
  353   370   371     1 
  353   370   372     1 
  353   370   375     1 
  371   370   372     1 
  371   370   375     1 
  372   370   375     1 
  356   372   370     1 
  356   372   373     1 
  356   372   374     1 
  370   372   373     1 
  370   372   374     1 
  373   372   374     1 
  370   375   376     1 
  375   376   377     1 
  375   376   378     1 
  375   376   379     1 
  377   376   378     1 
  377   376   379     1 
  378   376   379     1 
  376   379   380     1 
  379   380   381     1 
  379   380   382     1 
  379   380   383     1 
  381   380   382     1 
  381   380   383     1 
  382   380   383     1 
  380   383   384     1 
  380   383   385     1 
  380   383   400     1 
  384   383   385     1 
  384   383   400     1 
  385   383   400     1 
  383   385   386     1 
  385   386   387     1 
  385   386   388     1 
  385   386   402     1 
  387   386   388     1 
  387   386   402     1 
  388   386   402     1 
  386   388   389     1 
  386   388   398     1 
  389   388   398     1 
  388   389   390     1 
  388   389   391     1 
  390   389   391     1 
  389   391   392     1 
  389   391   393     1 
  392   391   393     1 
  391   393   394     1 
  391   393   397     1 
  394   393   397     1 
  393   394   395     1 
  393   394   396     1 
  395   394   396     1 
  393   397   398     1 
  388   398   397     1 
  388   398   399     1 
  397   398   399     1 
  383   400   401     1 
  383   400   402     1 
  383   400   405     1 
  401   400   402     1 
  401   400   405     1 
  402   400   405     1 
  386   402   400     1 
  386   402   403     1 
  386   402   404     1 
  400   402   403     1 
  400   402   404     1 
  403   402   404     1 
  400   405   406     1 
  405   406   407     1 
  405   406   408     1 
  405   406   409     1 
  407   406   408     1 
  407   406   409     1 
  408   406   409     1 
  406   409   410     1 
  409   410   411     1 
  409   410   412     1 
  409   410   413     1 
  411   410   412     1 
  411   410   413     1 
  412   410   413     1 
  410   413   414     1 
  410   413   415     1 
  410   413   430     1 
  414   413   415     1 
  414   413   430     1 
  415   413   430     1 
  413   415   416     1 
  415   416   417     1 
  415   416   418     1 
  415   416   432     1 
  417   416   418     1 
  417   416   432     1 
  418   416   432     1 
  416   418   419     1 
  416   418   428     1 
  419   418   428     1 
  418   419   420     1 
  418   419   421     1 
  420   419   421     1 
  419   421   422     1 
  419   421   423     1 
  422   421   423     1 
  421   423   424     1 
  421   423   427     1 
  424   423   427     1 
  423   424   425     1 
  423   424   426     1 
  425   424   426     1 
  423   427   428     1 
  418   428   427     1 
  418   428   429     1 
  427   428   429     1 
  413   430   431     1 
  413   430   432     1 
  413   430   435     1 
  431   430   432     1 
  431   430   435     1 
  432   430   435     1 
  416   432   430     1 
  416   432   433     1 
  416   432   434     1 
  430   432   433     1 
  430   432   434     1 
  433   432   434     1 
  430   435   436     1 
  435   436   437     1 
  435   436   438     1 
  435   436   439     1 
  437   436   438     1 
  437   436   439     1 
  438   436   439     1 
  436   439   440     1 
  439   440   441     1 
  439   440   442     1 
  439   440   443     1 
  441   440   442     1 
  441   440   443     1 
  442   440   443     1 
  440   443   444     1 
  440   443   445     1 
  440   443   460     1 
  444   443   445     1 
  444   443   460     1 
  445   443   460     1 
  443   445   446     1 
  445   446   447     1 
  445   446   448     1 
  445   446   462     1 
  447   446   448     1 
  447   446   462     1 
  448   446   462     1 
  446   448   449     1 
  446   448   458     1 
  449   448   458     1 
  448   449   450     1 
  448   449   451     1 
  450   449   451     1 
  449   451   452     1 
  449   451   453     1 
  452   451   453     1 
  451   453   454     1 
  451   453   457     1 
  454   453   457     1 
  453   454   455     1 
  453   454   456     1 
  455   454   456     1 
  453   457   458     1 
  448   458   457     1 
  448   458   459     1 
  457   458   459     1 
  443   460   461     1 
  443   460   462     1 
  443   460   465     1 
  461   460   462     1 
  461   460   465     1 
  462   460   465     1 
  446   462   460     1 
  446   462   463     1 
  446   462   464     1 
  460   462   463     1 
  460   462   464     1 
  463   462   464     1 
  460   465   466     1 

[ dihedrals ]
;  ai    aj    ak    al funct            c0            c1            c2            c3            c4            c5
    2     1     3     4     9 
    2     1     3     5     9 
    2     1     3     6     9 
    1     3     6     7     9 
    1     3     6     8     9 
    1     3     6    23     9 
    4     3     6     7     9 
    4     3     6     8     9 
    4     3     6    23     9 
    5     3     6     7     9 
    5     3     6     8     9 
    5     3     6    23     9 
    3     6     8     9     9 
    7     6     8     9     9 
   23     6     8     9     9 
    3     6    23    24     9 
    3     6    23    25     9 
    3     6    23    28     9 
    7     6    23    24     9 
    7     6    23    25     9 
    7     6    23    28     9 
    8     6    23    24     9 
    8     6    23    25     9 
    8     6    23    28     9 
    6     8     9    10     9 
    6     8     9    11     9 
    6     8     9    25     9 
    8     9    11    12     9 
    8     9    11    21     9 
   10     9    11    12     9 
   10     9    11    21     9 
   25     9    11    12     9 
   25     9    11    21     9 
    8     9    25    23     9 
    8     9    25    26     9 
    8     9    25    27     9 
   10     9    25    23     9 
   10     9    25    26     9 
   10     9    25    27     9 
   11     9    25    23     9 
   11     9    25    26     9 
   11     9    25    27     9 
    9    11    12    13     9 
    9    11    12    14     9 
   21    11    12    13     9 
   21    11    12    14     9 
    9    11    21    20     9 
    9    11    21    22     9 
   12    11    21    20     9 
   12    11    21    22     9 
   11    12    14    15     9 
   11    12    14    16     9 
   13    12    14    15     9 
   13    12    14    16     9 
   12    14    16    17     9 
   12    14    16    20     9 
   15    14    16    17     9 
   15    14    16    20     9 
   14    16    17    18     9 
   14    16    17    19     9 
   20    16    17    18     9 
   20    16    17    19     9 
   14    16    20    21     9 
   17    16    20    21     9 
   16    20    21    11     9 
   16    20    21    22     9 
    6    23    25     9     9 
    6    23    25    26     9 
    6    23    25    27     9 
   24    23    25     9     9 
   24    23    25    26     9 
   24    23    25    27     9 
   28    23    25     9     9 
   28    23    25    26     9 
   28    23    25    27     9 
    6    23    28    29     9 
   24    23    28    29     9 
   25    23    28    29     9 
   23    28    29    30     9 
   23    28    29    31     9 
   23    28    29    32     9 
   28    29    32    33     9 
   30    29    32    33     9 
   31    29    32    33     9 
   29    32    33    34     9 
   29    32    33    35     9 
   29    32    33    36     9 
   32    33    36    37     9 
   32    33    36    38     9 
   32    33    36    55     9 
   34    33    36    37     9 
   34    33    36    38     9 
   34    33    36    55     9 
   35    33    36    37     9 
   35    33    36    38     9 
   35    33    36    55     9 
   33    36    38    39     9 
   37    36    38    39     9 
   55    36    38    39     9 
   33    36    55    56     9 
   33    36    55    57     9 
   33    36    55    60     9 
   37    36    55    56     9 
   37    36    55    57     9 
   37    36    55    60     9 
   38    36    55    56     9 
   38    36    55    57     9 
   38    36    55    60     9 
   36    38    39    40     9 
   36    38    39    41     9 
   36    38    39    57     9 
   38    39    41    42     9 
   38    39    41    53     9 
   40    39    41    42     9 
   40    39    41    53     9 
   57    39    41    42     9 
   57    39    41    53     9 
   38    39    57    55     9 
   38    39    57    58     9 
   38    39    57    59     9 
   40    39    57    55     9 
   40    39    57    58     9 
   40    39    57    59     9 
   41    39    57    55     9 
   41    39    57    58     9 
   41    39    57    59     9 
   39    41    42    43     9 
   39    41    42    44     9 
   53    41    42    43     9 
   53    41    42    44     9 
   39    41    53    51     9 
   39    41    53    54     9 
   42    41    53    51     9 
   42    41    53    54     9 
   41    42    44    45     9 
   41    42    44    49     9 
   43    42    44    45     9 
   43    42    44    49     9 
   42    44    45    46     9 
   42    44    45    47     9 
   42    44    45    48     9 
   49    44    45    46     9 
   49    44    45    47     9 
   49    44    45    48     9 
   42    44    49    50     9 
   42    44    49    51     9 
   45    44    49    50     9 
   45    44    49    51     9 
   44    49    51    52     9 
   44    49    51    53     9 
   50    49    51    52     9 
   50    49    51    53     9 
   49    51    53    41     9 
   49    51    53    54     9 
   52    51    53    41     9 
   52    51    53    54     9 
   36    55    57    39     9 
   36    55    57    58     9 
   36    55    57    59     9 
   56    55    57    39     9 
   56    55    57    58     9 
   56    55    57    59     9 
   60    55    57    39     9 
   60    55    57    58     9 
   60    55    57    59     9 
   36    55    60    61     9 
   56    55    60    61     9 
   57    55    60    61     9 
   55    60    61    62     9 
   55    60    61    63     9 
   55    60    61    64     9 
   60    61    64    65     9 
   62    61    64    65     9 
   63    61    64    65     9 
   61    64    65    66     9 
   61    64    65    67     9 
   61    64    65    68     9 
   64    65    68    69     9 
   64    65    68    70     9 
   64    65    68    88     9 
   66    65    68    69     9 
   66    65    68    70     9 
   66    65    68    88     9 
   67    65    68    69     9 
   67    65    68    70     9 
   67    65    68    88     9 
   65    68    70    71     9 
   69    68    70    71     9 
   88    68    70    71     9 
   65    68    88    89     9 
   65    68    88    90     9 
   65    68    88    93     9 
   69    68    88    89     9 
   69    68    88    90     9 
   69    68    88    93     9 
   70    68    88    89     9 
   70    68    88    90     9 
   70    68    88    93     9 
   68    70    71    72     9 
   68    70    71    73     9 
   68    70    71    90     9 
   70    71    73    74     9 
   70    71    73    87     9 
   72    71    73    74     9 
   72    71    73    87     9 
   90    71    73    74     9 
   90    71    73    87     9 
   70    71    90    88     9 
   70    71    90    91     9 
   70    71    90    92     9 
   72    71    90    88     9 
   72    71    90    91     9 
   72    71    90    92     9 
   73    71    90    88     9 
   73    71    90    91     9 
   73    71    90    92     9 
   71    73    74    75     9 
   71    73    74    76     9 
   87    73    74    75     9 
   87    73    74    76     9 
   71    73    87    77     9 
   71    73    87    86     9 
   74    73    87    77     9 
   74    73    87    86     9 
   73    74    76    77     9 
   75    74    76    77     9 
   74    76    77    78     9 
   74    76    77    87     9 
   76    77    78    79     9 
   76    77    78    80     9 
   87    77    78    79     9 
   87    77    78    80     9 
   76    77    87    73     9 
   76    77    87    86     9 
   78    77    87    73     9 
   78    77    87    86     9 
   77    78    80    81     9 
   77    78    80    82     9 
   79    78    80    81     9 
   79    78    80    82     9 
   78    80    82    83     9 
   78    80    82    86     9 
   81    80    82    83     9 
   81    80    82    86     9 
   80    82    83    84     9 
   80    82    83    85     9 
   86    82    83    84     9 
   86    82    83    85     9 
   80    82    86    87     9 
   83    82    86    87     9 
   82    86    87    73     9 
   82    86    87    77     9 
   68    88    90    71     9 
   68    88    90    91     9 
   68    88    90    92     9 
   89    88    90    71     9 
   89    88    90    91     9 
   89    88    90    92     9 
   93    88    90    71     9 
   93    88    90    91     9 
   93    88    90    92     9 
   68    88    93    94     9 
   89    88    93    94     9 
   90    88    93    94     9 
   88    93    94    95     9 
   88    93    94    96     9 
   88    93    94    97     9 
   93    94    97    98     9 
   95    94    97    98     9 
   96    94    97    98     9 
   94    97    98    99     9 
   94    97    98   100     9 
   94    97    98   101     9 
   97    98   101   102     9 
   97    98   101   103     9 
   97    98   101   120     9 
   99    98   101   102     9 
   99    98   101   103     9 
   99    98   101   120     9 
  100    98   101   102     9 
  100    98   101   103     9 
  100    98   101   120     9 
   98   101   103   104     9 
  102   101   103   104     9 
  120   101   103   104     9 
   98   101   120   121     9 
   98   101   120   122     9 
   98   101   120   125     9 
  102   101   120   121     9 
  102   101   120   122     9 
  102   101   120   125     9 
  103   101   120   121     9 
  103   101   120   122     9 
  103   101   120   125     9 
  101   103   104   105     9 
  101   103   104   106     9 
  101   103   104   122     9 
  103   104   106   107     9 
  103   104   106   119     9 
  105   104   106   107     9 
  105   104   106   119     9 
  122   104   106   107     9 
  122   104   106   119     9 
  103   104   122   120     9 
  103   104   122   123     9 
  103   104   122   124     9 
  105   104   122   120     9 
  105   104   122   123     9 
  105   104   122   124     9 
  106   104   122   120     9 
  106   104   122   123     9 
  106   104   122   124     9 
  104   106   107   108     9 
  104   106   107   109     9 
  119   106   107   108     9 
  119   106   107   109     9 
  104   106   119   110     9 
  104   106   119   118     9 
  107   106   119   110     9 
  107   106   119   118     9 
  106   107   109   110     9 
  108   107   109   110     9 
  107   109   110   111     9 
  107   109   110   119     9 
  109   110   111   112     9 
  109   110   111   115     9 
  119   110   111   112     9 
  119   110   111   115     9 
  109   110   119   106     9 
  109   110   119   118     9 
  111   110   119   106     9 
  111   110   119   118     9 
  110   111   112   113     9 
  110   111   112   114     9 
  115   111   112   113     9 
  115   111   112   114     9 
  110   111   115   116     9 
  112   111   115   116     9 
  111   115   116   117     9 
  111   115   116   118     9 
  115   116   118   119     9 
  117   116   118   119     9 
  116   118   119   106     9 
  116   118   119   110     9 
  101   120   122   104     9 
  101   120   122   123     9 
  101   120   122   124     9 
  121   120   122   104     9 
  121   120   122   123     9 
  121   120   122   124     9 
  125   120   122   104     9 
  125   120   122   123     9 
  125   120   122   124     9 
  101   120   125   126     9 
  121   120   125   126     9 
  122   120   125   126     9 
  120   125   126   127     9 
  120   125   126   128     9 
  120   125   126   129     9 
  125   126   129   130     9 
  127   126   129   130     9 
  128   126   129   130     9 
  126   129   130   131     9 
  126   129   130   132     9 
  126   129   130   133     9 
  129   130   133   134     9 
  129   130   133   135     9 
  129   130   133   152     9 
  131   130   133   134     9 
  131   130   133   135     9 
  131   130   133   152     9 
  132   130   133   134     9 
  132   130   133   135     9 
  132   130   133   152     9 
  130   133   135   136     9 
  134   133   135   136     9 
  152   133   135   136     9 
  130   133   152   153     9 
  130   133   152   154     9 
  130   133   152   157     9 
  134   133   152   153     9 
  134   133   152   154     9 
  134   133   152   157     9 
  135   133   152   153     9 
  135   133   152   154     9 
  135   133   152   157     9 
  133   135   136   137     9 
  133   135   136   138     9 
  133   135   136   154     9 
  135   136   138   139     9 
  135   136   138   151     9 
  137   136   138   139     9 
  137   136   138   151     9 
  154   136   138   139     9 
  154   136   138   151     9 
  135   136   154   152     9 
  135   136   154   155     9 
  135   136   154   156     9 
  137   136   154   152     9 
  137   136   154   155     9 
  137   136   154   156     9 
  138   136   154   152     9 
  138   136   154   155     9 
  138   136   154   156     9 
  136   138   139   140     9 
  136   138   139   141     9 
  151   138   139   140     9 
  151   138   139   141     9 
  136   138   151   142     9 
  136   138   151   150     9 
  139   138   151   142     9 
  139   138   151   150     9 
  138   139   141   142     9 
  140   139   141   142     9 
  139   141   142   143     9 
  139   141   142   151     9 
  141   142   143   144     9 
  141   142   143   147     9 
  151   142   143   144     9 
  151   142   143   147     9 
  141   142   151   138     9 
  141   142   151   150     9 
  143   142   151   138     9 
  143   142   151   150     9 
  142   143   144   145     9 
  142   143   144   146     9 
  147   143   144   145     9 
  147   143   144   146     9 
  142   143   147   148     9 
  144   143   147   148     9 
  143   147   148   149     9 
  143   147   148   150     9 
  147   148   150   151     9 
  149   148   150   151     9 
  148   150   151   138     9 
  148   150   151   142     9 
  133   152   154   136     9 
  133   152   154   155     9 
  133   152   154   156     9 
  153   152   154   136     9 
  153   152   154   155     9 
  153   152   154   156     9 
  157   152   154   136     9 
  157   152   154   155     9 
  157   152   154   156     9 
  133   152   157   158     9 
  153   152   157   158     9 
  154   152   157   158     9 
  152   157   158   159     9 
  152   157   158   160     9 
  152   157   158   161     9 
  157   158   161   162     9 
  159   158   161   162     9 
  160   158   161   162     9 
  158   161   162   163     9 
  158   161   162   164     9 
  158   161   162   165     9 
  161   162   165   166     9 
  161   162   165   167     9 
  161   162   165   182     9 
  163   162   165   166     9 
  163   162   165   167     9 
  163   162   165   182     9 
  164   162   165   166     9 
  164   162   165   167     9 
  164   162   165   182     9 
  162   165   167   168     9 
  166   165   167   168     9 
  182   165   167   168     9 
  162   165   182   183     9 
  162   165   182   184     9 
  162   165   182   187     9 
  166   165   182   183     9 
  166   165   182   184     9 
  166   165   182   187     9 
  167   165   182   183     9 
  167   165   182   184     9 
  167   165   182   187     9 
  165   167   168   169     9 
  165   167   168   170     9 
  165   167   168   184     9 
  167   168   170   171     9 
  167   168   170   180     9 
  169   168   170   171     9 
  169   168   170   180     9 
  184   168   170   171     9 
  184   168   170   180     9 
  167   168   184   182     9 
  167   168   184   185     9 
  167   168   184   186     9 
  169   168   184   182     9 
  169   168   184   185     9 
  169   168   184   186     9 
  170   168   184   182     9 
  170   168   184   185     9 
  170   168   184   186     9 
  168   170   171   172     9 
  168   170   171   173     9 
  180   170   171   172     9 
  180   170   171   173     9 
  168   170   180   179     9 
  168   170   180   181     9 
  171   170   180   179     9 
  171   170   180   181     9 
  170   171   173   174     9 
  170   171   173   175     9 
  172   171   173   174     9 
  172   171   173   175     9 
  171   173   175   176     9 
  171   173   175   179     9 
  174   173   175   176     9 
  174   173   175   179     9 
  173   175   176   177     9 
  173   175   176   178     9 
  179   175   176   177     9 
  179   175   176   178     9 
  173   175   179   180     9 
  176   175   179   180     9 
  175   179   180   170     9 
  175   179   180   181     9 
  165   182   184   168     9 
  165   182   184   185     9 
  165   182   184   186     9 
  183   182   184   168     9 
  183   182   184   185     9 
  183   182   184   186     9 
  187   182   184   168     9 
  187   182   184   185     9 
  187   182   184   186     9 
  165   182   187   188     9 
  183   182   187   188     9 
  184   182   187   188     9 
  182   187   188   189     9 
  182   187   188   190     9 
  182   187   188   191     9 
  187   188   191   192     9 
  189   188   191   192     9 
  190   188   191   192     9 
  188   191   192   193     9 
  188   191   192   194     9 
  188   191   192   195     9 
  191   192   195   196     9 
  191   192   195   197     9 
  191   192   195   214     9 
  193   192   195   196     9 
  193   192   195   197     9 
  193   192   195   214     9 
  194   192   195   196     9 
  194   192   195   197     9 
  194   192   195   214     9 
  192   195   197   198     9 
  196   195   197   198     9 
  214   195   197   198     9 
  192   195   214   215     9 
  192   195   214   216     9 
  192   195   214   219     9 
  196   195   214   215     9 
  196   195   214   216     9 
  196   195   214   219     9 
  197   195   214   215     9 
  197   195   214   216     9 
  197   195   214   219     9 
  195   197   198   199     9 
  195   197   198   200     9 
  195   197   198   216     9 
  197   198   200   201     9 
  197   198   200   213     9 
  199   198   200   201     9 
  199   198   200   213     9 
  216   198   200   201     9 
  216   198   200   213     9 
  197   198   216   214     9 
  197   198   216   217     9 
  197   198   216   218     9 
  199   198   216   214     9 
  199   198   216   217     9 
  199   198   216   218     9 
  200   198   216   214     9 
  200   198   216   217     9 
  200   198   216   218     9 
  198   200   201   202     9 
  198   200   201   203     9 
  213   200   201   202     9 
  213   200   201   203     9 
  198   200   213   204     9 
  198   200   213   212     9 
  201   200   213   204     9 
  201   200   213   212     9 
  200   201   203   204     9 
  202   201   203   204     9 
  201   203   204   205     9 
  201   203   204   213     9 
  203   204   205   206     9 
  203   204   205   209     9 
  213   204   205   206     9 
  213   204   205   209     9 
  203   204   213   200     9 
  203   204   213   212     9 
  205   204   213   200     9 
  205   204   213   212     9 
  204   205   206   207     9 
  204   205   206   208     9 
  209   205   206   207     9 
  209   205   206   208     9 
  204   205   209   210     9 
  206   205   209   210     9 
  205   209   210   211     9 
  205   209   210   212     9 
  209   210   212   213     9 
  211   210   212   213     9 
  210   212   213   200     9 
  210   212   213   204     9 
  195   214   216   198     9 
  195   214   216   217     9 
  195   214   216   218     9 
  215   214   216   198     9 
  215   214   216   217     9 
  215   214   216   218     9 
  219   214   216   198     9 
  219   214   216   217     9 
  219   214   216   218     9 
  195   214   219   220     9 
  215   214   219   220     9 
  216   214   219   220     9 
  214   219   220   221     9 
  214   219   220   222     9 
  214   219   220   223     9 
  219   220   223   224     9 
  221   220   223   224     9 
  222   220   223   224     9 
  220   223   224   225     9 
  220   223   224   226     9 
  220   223   224   227     9 
  223   224   227   228     9 
  223   224   227   229     9 
  223   224   227   246     9 
  225   224   227   228     9 
  225   224   227   229     9 
  225   224   227   246     9 
  226   224   227   228     9 
  226   224   227   229     9 
  226   224   227   246     9 
  224   227   229   230     9 
  228   227   229   230     9 
  246   227   229   230     9 
  224   227   246   247     9 
  224   227   246   248     9 
  224   227   246   251     9 
  228   227   246   247     9 
  228   227   246   248     9 
  228   227   246   251     9 
  229   227   246   247     9 
  229   227   246   248     9 
  229   227   246   251     9 
  227   229   230   231     9 
  227   229   230   232     9 
  227   229   230   248     9 
  229   230   232   233     9 
  229   230   232   245     9 
  231   230   232   233     9 
  231   230   232   245     9 
  248   230   232   233     9 
  248   230   232   245     9 
  229   230   248   246     9 
  229   230   248   249     9 
  229   230   248   250     9 
  231   230   248   246     9 
  231   230   248   249     9 
  231   230   248   250     9 
  232   230   248   246     9 
  232   230   248   249     9 
  232   230   248   250     9 
  230   232   233   234     9 
  230   232   233   235     9 
  245   232   233   234     9 
  245   232   233   235     9 
  230   232   245   236     9 
  230   232   245   244     9 
  233   232   245   236     9 
  233   232   245   244     9 
  232   233   235   236     9 
  234   233   235   236     9 
  233   235   236   237     9 
  233   235   236   245     9 
  235   236   237   238     9 
  235   236   237   241     9 
  245   236   237   238     9 
  245   236   237   241     9 
  235   236   245   232     9 
  235   236   245   244     9 
  237   236   245   232     9 
  237   236   245   244     9 
  236   237   238   239     9 
  236   237   238   240     9 
  241   237   238   239     9 
  241   237   238   240     9 
  236   237   241   242     9 
  238   237   241   242     9 
  237   241   242   243     9 
  237   241   242   244     9 
  241   242   244   245     9 
  243   242   244   245     9 
  242   244   245   232     9 
  242   244   245   236     9 
  227   246   248   230     9 
  227   246   248   249     9 
  227   246   248   250     9 
  247   246   248   230     9 
  247   246   248   249     9 
  247   246   248   250     9 
  251   246   248   230     9 
  251   246   248   249     9 
  251   246   248   250     9 
  227   246   251   252     9 
  247   246   251   252     9 
  248   246   251   252     9 
  246   251   252   253     9 
  246   251   252   254     9 
  246   251   252   255     9 
  251   252   255   256     9 
  253   252   255   256     9 
  254   252   255   256     9 
  252   255   256   257     9 
  252   255   256   258     9 
  252   255   256   259     9 
  255   256   259   260     9 
  255   256   259   261     9 
  255   256   259   278     9 
  257   256   259   260     9 
  257   256   259   261     9 
  257   256   259   278     9 
  258   256   259   260     9 
  258   256   259   261     9 
  258   256   259   278     9 
  256   259   261   262     9 
  260   259   261   262     9 
  278   259   261   262     9 
  256   259   278   279     9 
  256   259   278   280     9 
  256   259   278   283     9 
  260   259   278   279     9 
  260   259   278   280     9 
  260   259   278   283     9 
  261   259   278   279     9 
  261   259   278   280     9 
  261   259   278   283     9 
  259   261   262   263     9 
  259   261   262   264     9 
  259   261   262   280     9 
  261   262   264   265     9 
  261   262   264   276     9 
  263   262   264   265     9 
  263   262   264   276     9 
  280   262   264   265     9 
  280   262   264   276     9 
  261   262   280   278     9 
  261   262   280   281     9 
  261   262   280   282     9 
  263   262   280   278     9 
  263   262   280   281     9 
  263   262   280   282     9 
  264   262   280   278     9 
  264   262   280   281     9 
  264   262   280   282     9 
  262   264   265   266     9 
  262   264   265   267     9 
  276   264   265   266     9 
  276   264   265   267     9 
  262   264   276   274     9 
  262   264   276   277     9 
  265   264   276   274     9 
  265   264   276   277     9 
  264   265   267   268     9 
  264   265   267   272     9 
  266   265   267   268     9 
  266   265   267   272     9 
  265   267   268   269     9 
  265   267   268   270     9 
  265   267   268   271     9 
  272   267   268   269     9 
  272   267   268   270     9 
  272   267   268   271     9 
  265   267   272   273     9 
  265   267   272   274     9 
  268   267   272   273     9 
  268   267   272   274     9 
  267   272   274   275     9 
  267   272   274   276     9 
  273   272   274   275     9 
  273   272   274   276     9 
  272   274   276   264     9 
  272   274   276   277     9 
  275   274   276   264     9 
  275   274   276   277     9 
  259   278   280   262     9 
  259   278   280   281     9 
  259   278   280   282     9 
  279   278   280   262     9 
  279   278   280   281     9 
  279   278   280   282     9 
  283   278   280   262     9 
  283   278   280   281     9 
  283   278   280   282     9 
  259   278   283   284     9 
  279   278   283   284     9 
  280   278   283   284     9 
  278   283   284   285     9 
  278   283   284   286     9 
  278   283   284   287     9 
  283   284   287   288     9 
  285   284   287   288     9 
  286   284   287   288     9 
  284   287   288   289     9 
  284   287   288   290     9 
  284   287   288   291     9 
  287   288   291   292     9 
  287   288   291   293     9 
  287   288   291   308     9 
  289   288   291   292     9 
  289   288   291   293     9 
  289   288   291   308     9 
  290   288   291   292     9 
  290   288   291   293     9 
  290   288   291   308     9 
  288   291   293   294     9 
  292   291   293   294     9 
  308   291   293   294     9 
  288   291   308   309     9 
  288   291   308   310     9 
  288   291   308   313     9 
  292   291   308   309     9 
  292   291   308   310     9 
  292   291   308   313     9 
  293   291   308   309     9 
  293   291   308   310     9 
  293   291   308   313     9 
  291   293   294   295     9 
  291   293   294   296     9 
  291   293   294   310     9 
  293   294   296   297     9 
  293   294   296   306     9 
  295   294   296   297     9 
  295   294   296   306     9 
  310   294   296   297     9 
  310   294   296   306     9 
  293   294   310   308     9 
  293   294   310   311     9 
  293   294   310   312     9 
  295   294   310   308     9 
  295   294   310   311     9 
  295   294   310   312     9 
  296   294   310   308     9 
  296   294   310   311     9 
  296   294   310   312     9 
  294   296   297   298     9 
  294   296   297   299     9 
  306   296   297   298     9 
  306   296   297   299     9 
  294   296   306   305     9 
  294   296   306   307     9 
  297   296   306   305     9 
  297   296   306   307     9 
  296   297   299   300     9 
  296   297   299   301     9 
  298   297   299   300     9 
  298   297   299   301     9 
  297   299   301   302     9 
  297   299   301   305     9 
  300   299   301   302     9 
  300   299   301   305     9 
  299   301   302   303     9 
  299   301   302   304     9 
  305   301   302   303     9 
  305   301   302   304     9 
  299   301   305   306     9 
  302   301   305   306     9 
  301   305   306   296     9 
  301   305   306   307     9 
  291   308   310   294     9 
  291   308   310   311     9 
  291   308   310   312     9 
  309   308   310   294     9 
  309   308   310   311     9 
  309   308   310   312     9 
  313   308   310   294     9 
  313   308   310   311     9 
  313   308   310   312     9 
  291   308   313   314     9 
  309   308   313   314     9 
  310   308   313   314     9 
  308   313   314   315     9 
  308   313   314   316     9 
  308   313   314   317     9 
  313   314   317   318     9 
  315   314   317   318     9 
  316   314   317   318     9 
  314   317   318   319     9 
  314   317   318   320     9 
  314   317   318   321     9 
  317   318   321   322     9 
  317   318   321   323     9 
  317   318   321   340     9 
  319   318   321   322     9 
  319   318   321   323     9 
  319   318   321   340     9 
  320   318   321   322     9 
  320   318   321   323     9 
  320   318   321   340     9 
  318   321   323   324     9 
  322   321   323   324     9 
  340   321   323   324     9 
  318   321   340   341     9 
  318   321   340   342     9 
  318   321   340   345     9 
  322   321   340   341     9 
  322   321   340   342     9 
  322   321   340   345     9 
  323   321   340   341     9 
  323   321   340   342     9 
  323   321   340   345     9 
  321   323   324   325     9 
  321   323   324   326     9 
  321   323   324   342     9 
  323   324   326   327     9 
  323   324   326   339     9 
  325   324   326   327     9 
  325   324   326   339     9 
  342   324   326   327     9 
  342   324   326   339     9 
  323   324   342   340     9 
  323   324   342   343     9 
  323   324   342   344     9 
  325   324   342   340     9 
  325   324   342   343     9 
  325   324   342   344     9 
  326   324   342   340     9 
  326   324   342   343     9 
  326   324   342   344     9 
  324   326   327   328     9 
  324   326   327   329     9 
  339   326   327   328     9 
  339   326   327   329     9 
  324   326   339   330     9 
  324   326   339   338     9 
  327   326   339   330     9 
  327   326   339   338     9 
  326   327   329   330     9 
  328   327   329   330     9 
  327   329   330   331     9 
  327   329   330   339     9 
  329   330   331   332     9 
  329   330   331   335     9 
  339   330   331   332     9 
  339   330   331   335     9 
  329   330   339   326     9 
  329   330   339   338     9 
  331   330   339   326     9 
  331   330   339   338     9 
  330   331   332   333     9 
  330   331   332   334     9 
  335   331   332   333     9 
  335   331   332   334     9 
  330   331   335   336     9 
  332   331   335   336     9 
  331   335   336   337     9 
  331   335   336   338     9 
  335   336   338   339     9 
  337   336   338   339     9 
  336   338   339   326     9 
  336   338   339   330     9 
  321   340   342   324     9 
  321   340   342   343     9 
  321   340   342   344     9 
  341   340   342   324     9 
  341   340   342   343     9 
  341   340   342   344     9 
  345   340   342   324     9 
  345   340   342   343     9 
  345   340   342   344     9 
  321   340   345   346     9 
  341   340   345   346     9 
  342   340   345   346     9 
  340   345   346   347     9 
  340   345   346   348     9 
  340   345   346   349     9 
  345   346   349   350     9 
  347   346   349   350     9 
  348   346   349   350     9 
  346   349   350   351     9 
  346   349   350   352     9 
  346   349   350   353     9 
  349   350   353   354     9 
  349   350   353   355     9 
  349   350   353   370     9 
  351   350   353   354     9 
  351   350   353   355     9 
  351   350   353   370     9 
  352   350   353   354     9 
  352   350   353   355     9 
  352   350   353   370     9 
  350   353   355   356     9 
  354   353   355   356     9 
  370   353   355   356     9 
  350   353   370   371     9 
  350   353   370   372     9 
  350   353   370   375     9 
  354   353   370   371     9 
  354   353   370   372     9 
  354   353   370   375     9 
  355   353   370   371     9 
  355   353   370   372     9 
  355   353   370   375     9 
  353   355   356   357     9 
  353   355   356   358     9 
  353   355   356   372     9 
  355   356   358   359     9 
  355   356   358   368     9 
  357   356   358   359     9 
  357   356   358   368     9 
  372   356   358   359     9 
  372   356   358   368     9 
  355   356   372   370     9 
  355   356   372   373     9 
  355   356   372   374     9 
  357   356   372   370     9 
  357   356   372   373     9 
  357   356   372   374     9 
  358   356   372   370     9 
  358   356   372   373     9 
  358   356   372   374     9 
  356   358   359   360     9 
  356   358   359   361     9 
  368   358   359   360     9 
  368   358   359   361     9 
  356   358   368   367     9 
  356   358   368   369     9 
  359   358   368   367     9 
  359   358   368   369     9 
  358   359   361   362     9 
  358   359   361   363     9 
  360   359   361   362     9 
  360   359   361   363     9 
  359   361   363   364     9 
  359   361   363   367     9 
  362   361   363   364     9 
  362   361   363   367     9 
  361   363   364   365     9 
  361   363   364   366     9 
  367   363   364   365     9 
  367   363   364   366     9 
  361   363   367   368     9 
  364   363   367   368     9 
  363   367   368   358     9 
  363   367   368   369     9 
  353   370   372   356     9 
  353   370   372   373     9 
  353   370   372   374     9 
  371   370   372   356     9 
  371   370   372   373     9 
  371   370   372   374     9 
  375   370   372   356     9 
  375   370   372   373     9 
  375   370   372   374     9 
  353   370   375   376     9 
  371   370   375   376     9 
  372   370   375   376     9 
  370   375   376   377     9 
  370   375   376   378     9 
  370   375   376   379     9 
  375   376   379   380     9 
  377   376   379   380     9 
  378   376   379   380     9 
  376   379   380   381     9 
  376   379   380   382     9 
  376   379   380   383     9 
  379   380   383   384     9 
  379   380   383   385     9 
  379   380   383   400     9 
  381   380   383   384     9 
  381   380   383   385     9 
  381   380   383   400     9 
  382   380   383   384     9 
  382   380   383   385     9 
  382   380   383   400     9 
  380   383   385   386     9 
  384   383   385   386     9 
  400   383   385   386     9 
  380   383   400   401     9 
  380   383   400   402     9 
  380   383   400   405     9 
  384   383   400   401     9 
  384   383   400   402     9 
  384   383   400   405     9 
  385   383   400   401     9 
  385   383   400   402     9 
  385   383   400   405     9 
  383   385   386   387     9 
  383   385   386   388     9 
  383   385   386   402     9 
  385   386   388   389     9 
  385   386   388   398     9 
  387   386   388   389     9 
  387   386   388   398     9 
  402   386   388   389     9 
  402   386   388   398     9 
  385   386   402   400     9 
  385   386   402   403     9 
  385   386   402   404     9 
  387   386   402   400     9 
  387   386   402   403     9 
  387   386   402   404     9 
  388   386   402   400     9 
  388   386   402   403     9 
  388   386   402   404     9 
  386   388   389   390     9 
  386   388   389   391     9 
  398   388   389   390     9 
  398   388   389   391     9 
  386   388   398   397     9 
  386   388   398   399     9 
  389   388   398   397     9 
  389   388   398   399     9 
  388   389   391   392     9 
  388   389   391   393     9 
  390   389   391   392     9 
  390   389   391   393     9 
  389   391   393   394     9 
  389   391   393   397     9 
  392   391   393   394     9 
  392   391   393   397     9 
  391   393   394   395     9 
  391   393   394   396     9 
  397   393   394   395     9 
  397   393   394   396     9 
  391   393   397   398     9 
  394   393   397   398     9 
  393   397   398   388     9 
  393   397   398   399     9 
  383   400   402   386     9 
  383   400   402   403     9 
  383   400   402   404     9 
  401   400   402   386     9 
  401   400   402   403     9 
  401   400   402   404     9 
  405   400   402   386     9 
  405   400   402   403     9 
  405   400   402   404     9 
  383   400   405   406     9 
  401   400   405   406     9 
  402   400   405   406     9 
  400   405   406   407     9 
  400   405   406   408     9 
  400   405   406   409     9 
  405   406   409   410     9 
  407   406   409   410     9 
  408   406   409   410     9 
  406   409   410   411     9 
  406   409   410   412     9 
  406   409   410   413     9 
  409   410   413   414     9 
  409   410   413   415     9 
  409   410   413   430     9 
  411   410   413   414     9 
  411   410   413   415     9 
  411   410   413   430     9 
  412   410   413   414     9 
  412   410   413   415     9 
  412   410   413   430     9 
  410   413   415   416     9 
  414   413   415   416     9 
  430   413   415   416     9 
  410   413   430   431     9 
  410   413   430   432     9 
  410   413   430   435     9 
  414   413   430   431     9 
  414   413   430   432     9 
  414   413   430   435     9 
  415   413   430   431     9 
  415   413   430   432     9 
  415   413   430   435     9 
  413   415   416   417     9 
  413   415   416   418     9 
  413   415   416   432     9 
  415   416   418   419     9 
  415   416   418   428     9 
  417   416   418   419     9 
  417   416   418   428     9 
  432   416   418   419     9 
  432   416   418   428     9 
  415   416   432   430     9 
  415   416   432   433     9 
  415   416   432   434     9 
  417   416   432   430     9 
  417   416   432   433     9 
  417   416   432   434     9 
  418   416   432   430     9 
  418   416   432   433     9 
  418   416   432   434     9 
  416   418   419   420     9 
  416   418   419   421     9 
  428   418   419   420     9 
  428   418   419   421     9 
  416   418   428   427     9 
  416   418   428   429     9 
  419   418   428   427     9 
  419   418   428   429     9 
  418   419   421   422     9 
  418   419   421   423     9 
  420   419   421   422     9 
  420   419   421   423     9 
  419   421   423   424     9 
  419   421   423   427     9 
  422   421   423   424     9 
  422   421   423   427     9 
  421   423   424   425     9 
  421   423   424   426     9 
  427   423   424   425     9 
  427   423   424   426     9 
  421   423   427   428     9 
  424   423   427   428     9 
  423   427   428   418     9 
  423   427   428   429     9 
  413   430   432   416     9 
  413   430   432   433     9 
  413   430   432   434     9 
  431   430   432   416     9 
  431   430   432   433     9 
  431   430   432   434     9 
  435   430   432   416     9 
  435   430   432   433     9 
  435   430   432   434     9 
  413   430   435   436     9 
  431   430   435   436     9 
  432   430   435   436     9 
  430   435   436   437     9 
  430   435   436   438     9 
  430   435   436   439     9 
  435   436   439   440     9 
  437   436   439   440     9 
  438   436   439   440     9 
  436   439   440   441     9 
  436   439   440   442     9 
  436   439   440   443     9 
  439   440   443   444     9 
  439   440   443   445     9 
  439   440   443   460     9 
  441   440   443   444     9 
  441   440   443   445     9 
  441   440   443   460     9 
  442   440   443   444     9 
  442   440   443   445     9 
  442   440   443   460     9 
  440   443   445   446     9 
  444   443   445   446     9 
  460   443   445   446     9 
  440   443   460   461     9 
  440   443   460   462     9 
  440   443   460   465     9 
  444   443   460   461     9 
  444   443   460   462     9 
  444   443   460   465     9 
  445   443   460   461     9 
  445   443   460   462     9 
  445   443   460   465     9 
  443   445   446   447     9 
  443   445   446   448     9 
  443   445   446   462     9 
  445   446   448   449     9 
  445   446   448   458     9 
  447   446   448   449     9 
  447   446   448   458     9 
  462   446   448   449     9 
  462   446   448   458     9 
  445   446   462   460     9 
  445   446   462   463     9 
  445   446   462   464     9 
  447   446   462   460     9 
  447   446   462   463     9 
  447   446   462   464     9 
  448   446   462   460     9 
  448   446   462   463     9 
  448   446   462   464     9 
  446   448   449   450     9 
  446   448   449   451     9 
  458   448   449   450     9 
  458   448   449   451     9 
  446   448   458   457     9 
  446   448   458   459     9 
  449   448   458   457     9 
  449   448   458   459     9 
  448   449   451   452     9 
  448   449   451   453     9 
  450   449   451   452     9 
  450   449   451   453     9 
  449   451   453   454     9 
  449   451   453   457     9 
  452   451   453   454     9 
  452   451   453   457     9 
  451   453   454   455     9 
  451   453   454   456     9 
  457   453   454   455     9 
  457   453   454   456     9 
  451   453   457   458     9 
  454   453   457   458     9 
  453   457   458   448     9 
  453   457   458   459     9 
  443   460   462   446     9 
  443   460   462   463     9 
  443   460   462   464     9 
  461   460   462   446     9 
  461   460   462   463     9 
  461   460   462   464     9 
  465   460   462   446     9 
  465   460   462   463     9 
  465   460   462   464     9 
  443   460   465   466     9 
  461   460   465   466     9 
  462   460   465   466     9 

[ dihedrals ]
;  ai    aj    ak    al funct            c0            c1            c2            c3
    9    11    12    21     4 
   11    14    12    13     4 
   11    20    21    22     4 
   12    16    14    15     4 
   14    17    16    20     4 
   16    18    17    19     4 
   39    41    42    53     4 
   41    44    42    43     4 
   41    51    53    54     4 
   44    51    49    50     4 
   45    44    42    49     4 
   49    53    51    52     4 
   71    73    74    87     4 
   73    76    74    75     4 
   77    80    78    79     4 
   78    82    80    81     4 
   82    84    83    85     4 
   83    80    82    86     4 
  104   106   107   119     4 
  106   109   107   108     4 
  110   112   111   115     4 
  111   113   112   114     4 
  115   118   116   117     4 
  136   138   139   151     4 
  138   141   139   140     4 
  142   144   143   147     4 
  143   145   144   146     4 
  147   150   148   149     4 
  168   170   171   180     4 
  170   173   171   172     4 
  170   179   180   181     4 
  171   175   173   174     4 
  173   176   175   179     4 
  175   177   176   178     4 
  198   200   201   213     4 
  200   203   201   202     4 
  204   206   205   209     4 
  205   207   206   208     4 
  209   212   210   211     4 
  230   232   233   245     4 
  232   235   233   234     4 
  236   238   237   241     4 
  237   239   238   240     4 
  241   244   242   243     4 
  262   264   265   276     4 
  264   267   265   266     4 
  264   274   276   277     4 
  267   274   272   273     4 
  268   267   265   272     4 
  272   276   274   275     4 
  294   296   297   306     4 
  296   299   297   298     4 
  296   305   306   307     4 
  297   301   299   300     4 
  299   302   301   305     4 
  301   303   302   304     4 
  324   326   327   339     4 
  326   329   327   328     4 
  330   332   331   335     4 
  331   333   332   334     4 
  335   338   336   337     4 
  356   358   359   368     4 
  358   361   359   360     4 
  358   367   368   369     4 
  359   363   361   362     4 
  361   364   363   367     4 
  363   365   364   366     4 
  386   388   389   398     4 
  388   391   389   390     4 
  388   397   398   399     4 
  389   393   391   392     4 
  391   394   393   397     4 
  393   395   394   396     4 
  416   418   419   428     4 
  418   421   419   420     4 
  418   427   428   429     4 
  419   423   421   422     4 
  421   424   423   427     4 
  423   425   424   426     4 
  446   448   449   458     4 
  448   451   449   450     4 
  448   457   458   459     4 
  449   453   451   452     4 
  451   454   453   457     4 
  453   455   454   456     4 

; Include Position restraint file
#ifdef POSRES
#include "2Nhp6A_DNA_parambsc1_tip3p_DNA_chain_D_pr.itp"
#endif

